<preamble>

<basis_specs>
===============================================================================
C.2                  Z=   6    Mass=  12.011        Charge= 0.17977+309
Lmxo=2 Lmxkb= 1    BasisType=split      Semic=F
L=0  Nsemic=0  Cnfigmx=2
          i=1  nzeta=2  polorb=0  (2s)
            splnorm:   0.15000    
               vcte:    40.000    
               rinn:    4.0319    
               qcoe:    0.0000    
               qyuk:    0.0000    
               qwid:   0.10000E-01
                rcs:    4.4754      3.0421    
            lambdas:    1.0000      1.0000    
L=1  Nsemic=0  Cnfigmx=2
          i=1  nzeta=2  polorb=1  (2p)  (to be polarized perturbatively)
            splnorm:   0.15000    
               vcte:    40.000    
               rinn:    4.9118    
               qcoe:    0.0000    
               qyuk:    0.0000    
               qwid:   0.10000E-01
                rcs:    5.4575      3.6918    
            lambdas:    1.0000      1.0000    
L=2  Nsemic=0  Cnfigmx=3
          i=1  nzeta=0  polorb=0  (3d)  (perturbative polarization orbital) (from 2p)
-------------------------------------------------------------------------------
L=0  Nkbl=1  erefs: 0.17977+309
L=1  Nkbl=1  erefs: 0.17977+309
===============================================================================
</basis_specs>

<pseudopotential_header>
 C  pb nrl pcec
 ONCVPSP-3.2017-10-31Hamann's oncvpsp                        
 2s 2.00  r= 1.20/2p 2.00  r= 1.26/                                     2s:2p:
</pseudopotential_header>
</preamble>
C                             # Symbol
C.2                           # Label
    6                         # Atomic number
     4.00000000000                             # Valence charge
     12.0110000000        # Mass 
     20.7385037359        # Self energy 
   2   5                      # Lmax for basis, no. of nl orbitals 
   1   4                      # Lmax for projectors, no. of nl KB projectors
# PAOs:__________________________
  0  2  1  0  2.000000   #orbital l, n, z, is_polarized, population
 500    0.8968756677712594E-02     4.475409582178584     # npts, delta, cutoff
     0.000000000000000        0.3708922649256324    
    0.8968756677712594E-02    0.3710611771819028    
    0.1793751335542519E-01    0.3715749648239123    
    0.2690627003313778E-01    0.3724301037864113    
    0.3587502671085038E-01    0.3736248498000634    
    0.4484378338856297E-01    0.3751567998120448    
    0.5381254006627556E-01    0.3770229261103749    
    0.6278129674398816E-01    0.3792196160846020    
    0.7175005342170075E-01    0.3817427144220863    
    0.8071881009941334E-01    0.3845875648222362    
    0.8968756677712594E-01    0.3877490485830033    
    0.9865632345483853E-01    0.3912216178953566    
    0.1076250801325511        0.3949993223402997    
    0.1165938368102637        0.3990758278518708    
    0.1255625934879763        0.4034444282082370    
    0.1345313501656889        0.4080980498604022    
    0.1435001068434015        0.4130292515302079    
    0.1524688635211141        0.4182302204488013    
    0.1614376201988267        0.4236927673282264    
    0.1704063768765393        0.4294083221524400    
    0.1793751335542519        0.4353679326570458    
    0.1883438902319645        0.4415622669783696    
    0.1973126469096771        0.4479816214493149    
    0.2062814035873897        0.4546159339674155    
    0.2152501602651022        0.4614548028256614    
    0.2242189169428148        0.4684875104367875    
    0.2331876736205274        0.4757030510392585    
    0.2421564302982400        0.4830901612713914    
    0.2511251869759527        0.4906373524416177    
    0.2600939436536652        0.4983329433920764    
    0.2690627003313778        0.5061650930199052    
    0.2780314570090904        0.5141218317483269    
    0.2870002136868030        0.5221910914892213    
    0.2959689703645156        0.5303607338760354    
    0.3049377270422282        0.5386185767449448    
    0.3139064837199408        0.5469524189882140    
    0.3228752403976534        0.5553500639921534    
    0.3318439970753660        0.5637993419075328    
    0.3408127537530786        0.5722881309931569    
    0.3497815104307911        0.5808043782370927    
    0.3587502671085038        0.5893361194082636    
    0.3677190237862163        0.5978714986353934    
    0.3766877804639289        0.6063987875591728    
    0.3856565371416416        0.6149064040619451    
    0.3946252938193541        0.6233829305493535    
    0.4035940504970667        0.6318171317398358    
    0.4125628071747793        0.6401979719089158    
    0.4215315638524919        0.6485146315335341    
    0.4305003205302045        0.6567565232848124    
    0.4394690772079171        0.6649133073234702    
    0.4484378338856297        0.6729749058591635    
    0.4574065905633423        0.6809315169420551    
    0.4663753472410549        0.6887736274615827    
    0.4753441039187675        0.6964920253330614    
    0.4843128605964801        0.7040778108576780    
    0.4932816172741927        0.7115224072454995    
    0.5022503739519053        0.7188175702945315    
    0.5112191306296179        0.7259553972215943    
    0.5201878873073305        0.7329283346433449    
    0.5291566439850430        0.7397291857077584    
    0.5381254006627556        0.7463511163782873    
    0.5470941573404682        0.7527876608746519    
    0.5560629140181809        0.7590327262757040    
    0.5650316706958934        0.7650805962914207    
    0.5740004273736060        0.7709259342123649    
    0.5829691840513186        0.7765637850464203    
    0.5919379407290312        0.7819895768538485    
    0.6009066974067439        0.7871991212930771    
    0.6098754540844564        0.7921886133907875    
    0.6188442107621690        0.7969546305511060    
    0.6278129674398816        0.8014941308199305    
    0.6367817241175942        0.8058044504214044    
    0.6457504807953067        0.8098833005847965    
    0.6547192374730194        0.8137287636809684    
    0.6636879941507320        0.8173392886885990    
    0.6726567508284446        0.8207136860113414    
    0.6816255075061571        0.8238511216678706    
    0.6905942641838697        0.8267511108776903    
    0.6995630208615823        0.8294135110662910    
    0.7085317775392950        0.8318385143140088    
    0.7175005342170075        0.8340266392736377    
    0.7264692908947201        0.8359787225824931    
    0.7354380475724327        0.8376959097953014    
    0.7444068042501453        0.8391796458648538    
    0.7533755609278578        0.8404316651980088    
    0.7623443176055705        0.8414539813152081    
    0.7713130742832831        0.8422488761423049    
    0.7802818309609957        0.8428188889639924    
    0.7892505876387083        0.8431668050688228    
    0.7982193443164208        0.8432956441162847    
    0.8071881009941334        0.8432086482569973    
    0.8161568576718461        0.8429092700375780    
    0.8251256143495587        0.8424011601222248    
    0.8340943710272712        0.8416881548635011    
    0.8430631277049838        0.8407742637550771    
    0.8520318843826964        0.8396636567995337    
    0.8610006410604090        0.8383606518244676    
    0.8699693977381217        0.8368697017801112    
    0.8789381544158342        0.8351953820517543    
    0.8879069110935468        0.8333423778198970    
    0.8968756677712594        0.8313154715008195    
    0.9058444244489720        0.8291195302997796    
    0.9148131811266846        0.8267594939083925    
    0.9237819378043972        0.8242403623770550    
    0.9327506944821098        0.8215671841924674    
    0.9417194511598224        0.8187450445892236    
    0.9506882078375349        0.8157790541235376    
    0.9596569645152475        0.8126743375359424    
    0.9686257211929602        0.8094360229285594    
    0.9775944778706728        0.8060692312813317    
    0.9865632345483853        0.8025790663302268    
    0.9955319912260979        0.7989706049118190    
     1.004500747903811        0.7952488884424155    
     1.013469504581523        0.7914189110427147    
     1.022438261259236        0.7874856142272459    
     1.031407017936948        0.7834538777882386    
     1.040375774614661        0.7793285122551298    
     1.049344531292373        0.7751142518311409    
     1.058313287970086        0.7708157478239187    
     1.067282044647799        0.7664375625799176    
     1.076250801325511        0.7619841639307241    
     1.085219558003224        0.7574599201580254    
     1.094188314680936        0.7528690954822608    
     1.103157071358649        0.7482158460784541    
     1.112125828036362        0.7435042166211709    
     1.121094584714074        0.7387381373591437    
     1.130063341391787        0.7339214217182870    
     1.139032098069499        0.7290577644304015    
     1.148000854747212        0.7241507401834612    
     1.156969611424925        0.7192038027875374    
     1.165938368102637        0.7142202848485006    
     1.174907124780350        0.7092033979331307    
     1.183875881458062        0.7041562332714348    
     1.192844638135775        0.6990817629055460    
     1.201813394813488        0.6939828409920599    
     1.210782151491200        0.6888622063679553    
     1.219750908168913        0.6837224870004671    
     1.228719664846625        0.6785662056234710    
     1.237688421524338        0.6733957848969159    
     1.246657178202051        0.6682135505721705    
     1.255625934879763        0.6630217342824950    
     1.264594691557476        0.6578224768279083    
     1.273563448235188        0.6526178311954580    
     1.282532204912901        0.6474097657243466    
     1.291500961590613        0.6422001670107862    
     1.300469718268326        0.6369908427683069    
     1.309438474946039        0.6317835245997216    
     1.318407231623751        0.6265798704553022    
     1.327375988301464        0.6213814672590524    
     1.336344744979177        0.6161898332481354    
     1.345313501656889        0.6110064203622926    
     1.354282258334602        0.6058326165775066    
     1.363251015012314        0.6006697481061389    
     1.372219771690027        0.5955190815481777    
     1.381188528367739        0.5903818259845333    
     1.390157285045452        0.5852591349981680    
     1.399126041723165        0.5801521086318160    
     1.408094798400877        0.5750617952838741    
     1.417063555078590        0.5699891935434743    
     1.426032311756303        0.5649352539661113    
     1.435001068434015        0.5599008807915994    
     1.443969825111728        0.5548869336056550    
     1.452938581789440        0.5498942289467144    
     1.461907338467153        0.5449235418593878    
     1.470876095144865        0.5399756073960782    
     1.479844851822578        0.5350511220681579    
     1.488813608500291        0.5301507452482019    
     1.497782365178003        0.5252751005246658    
     1.506751121855716        0.5204247770104853    
     1.515719878533428        0.5156003306069518    
     1.524688635211141        0.5108022852243508    
     1.533657391888854        0.5060311339606078    
     1.542626148566566        0.5012873402394060    
     1.551594905244279        0.4965713389090350    
     1.560563661921991        0.4918835373033535    
     1.569532418599704        0.4872243162660912    
     1.578501175277417        0.4825940311397286    
     1.587469931955129        0.4779930127202856    
     1.596438688632842        0.4734215681790407    
     1.605407445310554        0.4688799819526264    
     1.614376201988267        0.4643685166021573    
     1.623344958665980        0.4598874136431498    
     1.632313715343692        0.4554368943464910    
     1.641282472021405        0.4510171605124502    
     1.650251228699117        0.4466283952175957    
     1.659219985376830        0.4422707635367591    
     1.668188742054542        0.4379444132398560    
     1.677157498732255        0.4336494754653987    
     1.686126255409968        0.4293860653708364    
     1.695095012087680        0.4251542827609755    
     1.704063768765393        0.4209542126951201    
     1.713032525443105        0.4167859260735410    
     1.722001282120818        0.4126494802044011    
     1.730970038798531        0.4085449193512057    
     1.739938795476243        0.4044722752621836    
     1.748907552153956        0.4004315676814665    
     1.757876308831668        0.3964228048432944    
     1.766845065509381        0.3924459839494393    
     1.775813822187094        0.3885010916305368    
     1.784782578864806        0.3845881043919059    
     1.793751335542519        0.3807069890441780    
     1.802720092220231        0.3768577031194320    
     1.811688848897944        0.3730401952731449    
     1.820657605575656        0.3692544056724761    
     1.829626362253369        0.3655002663712923    
     1.838595118931082        0.3617777016723434    
     1.847563875608794        0.3580866284769251    
     1.856532632286507        0.3544269566225997    
     1.865501388964220        0.3507985892090673    
     1.874470145641932        0.3472014229127995    
     1.883438902319645        0.3436353482906493    
     1.892407658997357        0.3401002500726876    
     1.901376415675070        0.3365960074449238    
     1.910345172352782        0.3331224943217397    
     1.919313929030495        0.3296795796088127    
     1.928282685708208        0.3262671274565865    
     1.937251442385920        0.3228849975044669    
     1.946220199063633        0.3195330451164736    
     1.955188955741346        0.3162111216080539    
     1.964157712419058        0.3129190744647774    
     1.973126469096771        0.3096567475530678    
     1.982095225774483        0.3064239813229491    
     1.991063982452196        0.3032206130036070    
     2.000032739129908        0.3000464767914963    
     2.009001495807621        0.2969014040314667    
     2.017970252485334        0.2937852233912642    
     2.026939009163046        0.2906977610293022    
     2.035907765840759        0.2876388407562717    
     2.044876522518472        0.2846082841906482    
     2.053845279196184        0.2816059109082061    
     2.062814035873897        0.2786315385860263    
     2.071782792551609        0.2756849831409259    
     2.080751549229322        0.2727660588626236    
     2.089720305907035        0.2698745785418588    
     2.098689062584747        0.2670103535935597    
     2.107657819262460        0.2641731941752926    
     2.116626575940172        0.2613629093011385    
     2.125595332617885        0.2585793069511849    
     2.134564089295597        0.2558221941767406    
     2.143532845973310        0.2530913772014505    
     2.152501602651022        0.2503866615185117    
     2.161470359328735        0.2477078519839866    
     2.170439116006448        0.2450547529064730    
     2.179407872684160        0.2424271681332694    
     2.188376629361873        0.2398249011329903    
     2.197345386039586        0.2372477550749362    
     2.206314142717298        0.2346955329052858    
     2.215282899395011        0.2321680374200953    
     2.224251656072723        0.2296650713353724    
     2.233220412750436        0.2271864373542781    
     2.242189169428149        0.2247319382314371    
     2.251157926105861        0.2223013768346195    
     2.260126682783574        0.2198945562038021    
     2.269095439461286        0.2175112796076448    
     2.278064196138999        0.2151513505975644    
     2.287032952816711        0.2128145730594462    
     2.296001709494424        0.2105007512630295    
     2.304970466172137        0.2082096899091089    
     2.313939222849849        0.2059411941745938    
     2.322907979527562        0.2036950697554919    
     2.331876736205274        0.2014711229079036    
     2.340845492882987        0.1992691604870687    
     2.349814249560700        0.1970889899845863    
     2.358783006238412        0.1949304195638130    
     2.367751762916125        0.1927932580935030    
     2.376720519593837        0.1906773151798327    
     2.385689276271550        0.1885824011967896    
     2.394658032949263        0.1865083273149470    
     2.403626789626975        0.1844549055288439    
     2.412595546304688        0.1824219486828847    
     2.421564302982401        0.1804092704957893    
     2.430533059660113        0.1784166855838057    
     2.439501816337826        0.1764440094826116    
     2.448470573015538        0.1744910586679381    
     2.457439329693251        0.1725576505750530    
     2.466408086370963        0.1706436036171235    
     2.475376843048676        0.1687487372024480    
     2.484345599726388        0.1668728717506305    
     2.493314356404101        0.1650158287078102    
     2.502283113081814        0.1631774305608984    
     2.511251869759526        0.1613575008507954    
     2.520220626437239        0.1595558641848854    
     2.529189383114951        0.1577723462489174    
     2.538158139792664        0.1560067738167105    
     2.547126896470377        0.1542589747607739    
     2.556095653148089        0.1525287780611697    
     2.565064409825802        0.1508160138145803    
     2.574033166503515        0.1491205132460420    
     2.583001923181227        0.1474421087089005    
     2.591970679858940        0.1457806336964696    
     2.600939436536652        0.1441359228331371    
     2.609908193214365        0.1425078118931299    
     2.618876949892078        0.1408961378066121    
     2.627845706569790        0.1393007386566179    
     2.636814463247503        0.1377214536954653    
     2.645783219925215        0.1361581233459883    
     2.654751976602928        0.1346105891976071    
     2.663720733280640        0.1330786940087968    
     2.672689489958353        0.1315622817086808    
     2.681658246636065        0.1300611973981350    
     2.690627003313778        0.1285752873504461    
     2.699595759991491        0.1271043990115731    
     2.708564516669203        0.1256483810000903    
     2.717533273346916        0.1242070831067244    
     2.726502030024629        0.1227803562935326    
     2.735470786702341        0.1213680526927518    
     2.744439543380054        0.1199700256053266    
     2.753408300057766        0.1185861294991298    
     2.762377056735479        0.1172162200068861    
     2.771345813413192        0.1158601539238089    
     2.780314570090904        0.1145177892049657    
     2.789283326768617        0.1131889849623860    
     2.798252083446329        0.1118736014619227    
     2.807220840124042        0.1105715001198767    
     2.816189596801754        0.1092825434993973    
     2.825158353479467        0.1080065953066667    
     2.834127110157180        0.1067435203868811    
     2.843095866834892        0.1054931847200355    
     2.852064623512605        0.1042554554165231    
     2.861033380190317        0.1030302007125579    
     2.870002136868030        0.1018172899654288    
     2.878970893545743        0.1006165936485934    
     2.887939650223455        0.9942798334662035E-01
     2.896908406901168        0.9825133174998678E-01
     2.905877163578880        0.9708651264973898E-01
     2.914845920256593        0.9593340093202288E-01
     2.923814676934306        0.9479187257249143E-01
     2.932783433612018        0.9366180463059620E-01
     2.941752190289731        0.9254307524376799E-01
     2.950720946967444        0.9143556362149452E-01
     2.959689703645156        0.9033915003929820E-01
     2.968658460322869        0.8925371583262301E-01
     2.977627217000581        0.8817914339063429E-01
     2.986595973678294        0.8711531614993553E-01
     2.995564730356006        0.8606211858820945E-01
     3.004533487033719        0.8501943621778713E-01
     3.013502243711431        0.8398715557914901E-01
     3.022471000389144        0.8296516423436533E-01
     3.031439757066857        0.8195335076047440E-01
     3.040408513744569        0.8095160474281025E-01
     3.049377270422282        0.7995981676827867E-01
     3.058346027099994        0.7897787841858667E-01
     3.067314783777707        0.7800568226342912E-01
     3.076283540455420        0.7704312185363693E-01
     3.085252297133132        0.7609009171428927E-01
     3.094221053810845        0.7514648733779383E-01
     3.103189810488558        0.7421220517693655E-01
     3.112158567166270        0.7328714263790598E-01
     3.121127323843983        0.7237119807329583E-01
     3.130096080521695        0.7146427077508515E-01
     3.139064837199408        0.7056626096760167E-01
     3.148033593877121        0.6967706980046914E-01
     3.157002350554833        0.6879659934154421E-01
     3.165971107232546        0.6792475256984214E-01
     3.174939863910258        0.6706143336845523E-01
     3.183908620587971        0.6620654651746219E-01
     3.192877377265683        0.6535999768684030E-01
     3.201846133943396        0.6452169342937261E-01
     3.210814890621108        0.6369154117355737E-01
     3.219783647298821        0.6286944921651476E-01
     3.228752403976534        0.6205532671690644E-01
     3.237721160654246        0.6124908368785673E-01
     3.246689917331959        0.6045063098988318E-01
     3.255658674009672        0.5965988032383237E-01
     3.264627430687384        0.5887674422383234E-01
     3.273596187365097        0.5810113605025630E-01
     3.282564944042810        0.5733296998269977E-01
     3.291533700720522        0.5657216101297453E-01
     3.300502457398235        0.5581862493811189E-01
     3.309471214075947        0.5507227835339672E-01
     3.318439970753660        0.5433303864541315E-01
     3.327408727431372        0.5360082398511423E-01
     3.336377484109085        0.5287555332090178E-01
     3.345346240786798        0.5215714637174758E-01
     3.354314997464510        0.5144552362032610E-01
     3.363283754142223        0.5074060630617672E-01
     3.372252510819935        0.5004231641888857E-01
     3.381221267497648        0.4935057669130866E-01
     3.390190024175360        0.4866531059278983E-01
     3.399158780853073        0.4798644232245752E-01
     3.408127537530786        0.4731389680251104E-01
     3.417096294208498        0.4664759967153913E-01
     3.426065050886211        0.4598747727789140E-01
     3.435033807563924        0.4533345667306482E-01
     3.444002564241636        0.4468546560512811E-01
     3.452971320919349        0.4404343251217520E-01
     3.461940077597061        0.4340728651580715E-01
     3.470908834274774        0.4277695741466404E-01
     3.479877590952487        0.4215237567797901E-01
     3.488846347630199        0.4153347243917314E-01
     3.497815104307912        0.4092017948947090E-01
     3.506783860985624        0.4031242927157269E-01
     3.515752617663337        0.3971015487335520E-01
     3.524721374341049        0.3911329002160813E-01
     3.533690131018762        0.3852176907581091E-01
     3.542658887696474        0.3793552702193001E-01
     3.551627644374187        0.3735449946628416E-01
     3.560596401051900        0.3677862262942790E-01
     3.569565157729612        0.3620783334008066E-01
     3.578533914407325        0.3564206902908838E-01
     3.587502671085038        0.3508126772342201E-01
     3.596471427762750        0.3452536804023448E-01
     3.605440184440463        0.3397430918094060E-01
     3.614408941118175        0.3342803092534652E-01
     3.623377697795888        0.3288647362580163E-01
     3.632346454473601        0.3234957820140891E-01
     3.641315211151313        0.3181728613227652E-01
     3.650283967829026        0.3128953945379986E-01
     3.659252724506739        0.3076628075099666E-01
     3.668221481184451        0.3024745315285511E-01
     3.677190237862164        0.2973300032675837E-01
     3.686158994539876        0.2922286647293505E-01
     3.695127751217589        0.2871699631894909E-01
     3.704096507895301        0.2821533511424096E-01
     3.713065264573014        0.2771782862467871E-01
     3.722034021250726        0.2722442312719557E-01
     3.731002777928439        0.2673506540444384E-01
     3.739971534606152        0.2624970273949294E-01
     3.748940291283864        0.2576828291057930E-01
     3.757909047961577        0.2529075418586208E-01
     3.766877804639289        0.2481706531827256E-01
     3.775846561317002        0.2434716554037356E-01
     3.784815317994715        0.2388100455926635E-01
     3.793784074672427        0.2341853255154730E-01
     3.802752831350140        0.2295970015827176E-01
     3.811721588027853        0.2250445848001019E-01
     3.820690344705565        0.2205275907191535E-01
     3.829659101383278        0.2160455393883465E-01
     3.838627858060990        0.2115979553047431E-01
     3.847596614738703        0.2071843673656914E-01
     3.856565371416415        0.2028043088214216E-01
     3.865534128094128        0.1984573172277786E-01
     3.874502884771841        0.1941429343993948E-01
     3.883471641449553        0.1898607063633480E-01
     3.892440398127266        0.1856101833129356E-01
     3.901409154804978        0.1813909195622221E-01
     3.910377911482691        0.1772024735008364E-01
     3.919346668160403        0.1730444075491347E-01
     3.928315424838116        0.1689162881138455E-01
     3.937284181515829        0.1648176855439015E-01
     3.946252938193541        0.1607481740868533E-01
     3.955221694871254        0.1567073318457107E-01
     3.964190451548967        0.1526947407360498E-01
     3.973159208226679        0.1487099864435778E-01
     3.982127964904392        0.1447526583820126E-01
     3.991096721582104        0.1408223496512631E-01
     4.000065478259817        0.1369186569962850E-01
     4.009034234937530        0.1330411807660683E-01
     4.018002991615242        0.1291895248730618E-01
     4.026971748292954        0.1253632967530208E-01
     4.035940504970667        0.1215621073249491E-01
     4.044909261648380        0.1177855709518369E-01
     4.053878018326093        0.1140333054014948E-01
     4.062846775003805        0.1103049318263909E-01
     4.071815531681517        0.1066000757884514E-01
     4.080784288359230        0.1029183801630248E-01
     4.089753045036943        0.9925956202602507E-02
     4.098721801714656        0.9562353712901801E-02
     4.107690558392368        0.9201058793574192E-02
     4.116659315070081        0.8842152322699273E-02
     4.125628071747793        0.8485778865460807E-02
     4.134596828425506        0.8132151312274093E-02
     4.143565585103218        0.7781549539982488E-02
     4.152534341780931        0.7434314464347912E-02
     4.161503098458644        0.7090839042854961E-02
     4.170471855136356        0.6751557604381366E-02
     4.179440611814069        0.6416934572415640E-02
     4.188409368491781        0.6087453337865051E-02
     4.197378125169494        0.5763605776549124E-02
     4.206346881847207        0.5445882706935313E-02
     4.215315638524920        0.5134765439922023E-02
     4.224284395202631        0.4830718473682986E-02
     4.233253151880344        0.4534183321591334E-02
     4.242221908558057        0.4245573420698996E-02
     4.251190665235770        0.3965270044526420E-02
     4.260159421913482        0.3693619131897386E-02
     4.269128178591195        0.3430928939031517E-02
     4.278096935268907        0.3177468422474626E-02
     4.287065691946620        0.2933466263777325E-02
     4.296034448624333        0.2699110451811789E-02
     4.305003205302045        0.2474548344350468E-02
     4.313971961979758        0.2259887136481548E-02
     4.322940718657470        0.2055194669093319E-02
     4.331909475335183        0.1860500515728195E-02
     4.340878232012895        0.1675797290304529E-02
     4.349846988690608        0.1501042121068023E-02
     4.358815745368321        0.1336158237239157E-02
     4.367784502046034        0.1181036613238006E-02
     4.376753258723745        0.1035537609616528E-02
     4.385722015401458        0.8994925371640949E-03
     4.394690772079171        0.7727050458921658E-03
     4.403659528756884        0.6549521932477415E-03
     4.412628285434597        0.5459849539490081E-03
     4.421597042112309        0.4455277471442383E-03
     4.430565798790021        0.3532761516976735E-03
     4.439534555467734        0.2688910183286216E-03
     4.448503312145447        0.1919845973180536E-03
     4.457472068823159        0.1220859654042911E-03
     4.466440825500872        0.5853747230521904E-04
     4.475409582178584         0.000000000000000    
  0  2  2  0  0.000000   #orbital l, n, z, is_polarized, population
 500    0.6096392392448040E-02     3.042099803831572     # npts, delta, cutoff
     0.000000000000000        0.2101575992608113    
    0.6096392392448040E-02    0.2102915883259041    
    0.1219278478489608E-01    0.2107062355462161    
    0.1828917717734412E-01    0.2113968826862481    
    0.2438556956979216E-01    0.2123628770969814    
    0.3048196196224020E-01    0.2136033139760189    
    0.3657835435468824E-01    0.2151170417042092    
    0.4267474674713628E-01    0.2169026696407216    
    0.4877113913958432E-01    0.2189585772210723    
    0.5486753153203236E-01    0.2212829239474354    
    0.6096392392448040E-01    0.2238736599168904    
    0.6706031631692844E-01    0.2267285365404322    
    0.7315670870937649E-01    0.2298451171167308    
    0.7925310110182453E-01    0.2332207869477050    
    0.8534949349427257E-01    0.2368527627179391    
    0.9144588588672060E-01    0.2407381009062438    
    0.9754227827916864E-01    0.2448737050522492    
    0.1036386706716167        0.2492563317617933    
    0.1097350630640647        0.2538825953987681    
    0.1158314554565128        0.2587489714748373    
    0.1219278478489608        0.2638517988095155    
    0.1280242402414088        0.2691872805880022    