<preamble>

<basis_specs>
===============================================================================
F.3                  Z=   9    Mass=  18.998        Charge= 0.17977+309
Lmxo=2 Lmxkb= 2    BasisType=split      Semic=F
L=0  Nsemic=0  Cnfigmx=2
          i=1  nzeta=2  polorb=0  (2s)
            splnorm:   0.15000    
               vcte:    40.000    
               rinn:    2.8903    
               qcoe:    0.0000    
               qyuk:    0.0000    
               qwid:   0.10000E-01
                rcs:    3.2082      2.0482    
            lambdas:    1.0000      1.0000    
L=1  Nsemic=0  Cnfigmx=2
          i=1  nzeta=2  polorb=1  (2p)  (to be polarized perturbatively)
            splnorm:   0.15000    
               vcte:    40.000    
               rinn:    3.5464    
               qcoe:    0.0000    
               qyuk:    0.0000    
               qwid:   0.10000E-01
                rcs:    3.9365      2.4864    
            lambdas:    1.0000      1.0000    
L=2  Nsemic=0  Cnfigmx=3
          i=1  nzeta=0  polorb=0  (3d)  (perturbative polarization orbital) (from 2p)
-------------------------------------------------------------------------------
L=0  Nkbl=1  erefs: 0.17977+309
L=1  Nkbl=1  erefs: 0.17977+309
L=2  Nkbl=1  erefs: 0.17977+309
===============================================================================
</basis_specs>

<pseudopotential_header>
 F  pb nrl pcec
 ONCVPSP-3.2017-10-31Hamann's oncvpsp                        
 2s 2.00  r= 1.31/2p 5.00  r= 1.46/3d 0.00  r= 1.60/                    2s:2p:
</pseudopotential_header>
</preamble>
F                             # Symbol
F.3                           # Label
    9                         # Atomic number
     7.00000000000                             # Valence charge
     18.9980000000        # Mass 
     80.4517310920        # Self energy 
   2   5                      # Lmax for basis, no. of nl orbitals 
   2   5                      # Lmax for projectors, no. of nl KB projectors
# PAOs:__________________________
  0  2  1  0  2.000000   #orbital l, n, z, is_polarized, population
 500    0.6429307641328617E-02     3.208224513022980     # npts, delta, cutoff
     0.000000000000000         1.864452371884947    
    0.6429307641328617E-02     1.864405560630785    
    0.1285861528265723E-01     1.864330081808371    
    0.1928792292398585E-01     1.864203805672969    
    0.2571723056531447E-01     1.864025997422565    
    0.3214653820664309E-01     1.863795685990430    
    0.3857584584797170E-01     1.863511701923008    
    0.4500515348930032E-01     1.863172727218753    
    0.5143446113062894E-01     1.862777349558941    
    0.5786376877195756E-01     1.862324117006229    
    0.6429307641328617E-01     1.861811589779544    
    0.7072238405461478E-01     1.861238386182273    
    0.7715169169594341E-01     1.860603220372349    
    0.8358099933727203E-01     1.859904930392622    
    0.9001030697860064E-01     1.859142495666045    
    0.9643961461992925E-01     1.858315043933934    
    0.1028689222612579         1.857421848315149    
    0.1092982299025865         1.856462315740173    
    0.1157275375439151         1.855435968433055    
    0.1221568451852437         1.854342420361847    
    0.1285861528265723         1.853181350655553    
    0.1350154604679010         1.851952475910132    
    0.1414447681092296         1.850655523105380    
    0.1478740757505582         1.849290204563083    
    0.1543033833918868         1.847856196031836    
    0.1607326910332154         1.846353118620844    
    0.1671619986745441         1.844780524954901    
    0.1735913063158727         1.843137889610008    
    0.1800206139572013         1.841424603630030    
    0.1864499215985299         1.839639972728975    
    0.1928792292398585         1.837783218652212    
    0.1993085368811871         1.835853483099948    
    0.2057378445225158         1.833849833599329    
    0.2121671521638444         1.831771270737306    
    0.2185964598051730         1.829616736223370    
    0.2250257674465016         1.827385121328235    
    0.2314550750878302         1.825075275331274    
    0.2378843827291588         1.822686013697723    
    0.2443136903704874         1.820216125789868    
    0.2507429980118161         1.817664381990462    
    0.2571723056531447         1.815029540178494    
    0.2636016132944733         1.812310351546930    
    0.2700309209358019         1.809505565788474    
    0.2764602285771305         1.806613935700673    
    0.2828895362184591         1.803634221276953    
    0.2893188438597878         1.800565193357210    
    0.2957481515011164         1.797405636912477    
    0.3021774591424450         1.794154354034762    
    0.3086067667837736         1.790810166696330    
    0.3150360744251022         1.787371919334566    
    0.3214653820664309         1.783838481309439    
    0.3278946897077595         1.780208749271543    
    0.3343239973490881         1.776481649470116    
    0.3407533049904167         1.772656140022660    
    0.3471826126317453         1.768731213160990    
    0.3536119202730740         1.764705897462868    
    0.3600412279144026         1.760579260073478    
    0.3664705355557312         1.756350408917321    
    0.3728998431970598         1.752018494898112    
    0.3793291508383884         1.747582714082017    
    0.3857584584797170         1.743042309857940    
    0.3921877661210457         1.738396575067579    
    0.3986170737623743         1.733644854097190    
    0.4050463814037029         1.728786544922647    
    0.4114756890450315         1.723821101099384    
    0.4179049966863601         1.718748033688823    
    0.4243343043276888         1.713566913113191    
    0.4307636119690174         1.708277370930998    
    0.4371929196103460         1.702879101525813    
    0.4436222272516746         1.697371863701639    
    0.4500515348930032         1.691755482178473    
    0.4564808425343319         1.686029848982430    
    0.4629101501756605         1.680194924725215    
    0.4693394578169890         1.674250739768298    
    0.4757687654583177         1.668197395267823    
    0.4821980730996463         1.662035064096636    
    0.4886273807409749         1.655763991640520    
    0.4950566883823035         1.649384496466177    
    0.5014859960236322         1.642896970858903    
    0.5079153036649607         1.636301881228572    
    0.5143446113062894         1.629599768382804    
    0.5207739189476180         1.622791247666752    
    0.5272032265889466         1.615877008969259    
    0.5336325342302752         1.608857816595638    
    0.5400618418716039         1.601734509007500    
    0.5464911495129324         1.594507998430644    
    0.5529204571542611         1.587179270332139    
    0.5593497647955897         1.579749382768151    
    0.5657790724369183         1.572219465604286    
    0.5722083800782469         1.564590719610692    
    0.5786376877195756         1.556864415434261    
    0.5850669953609042         1.549041892450644    
    0.5914963030022328         1.541124557499161    
    0.5979256106435614         1.533113883504015    
    0.6043549182848901         1.525011407985441    
    0.6107842259262186         1.516818731498177    
    0.6172135335675473         1.508537515864770    
    0.6236428412088759         1.500169482391659    
    0.6300721488502045         1.491716410042926    
    0.6365014564915331         1.483180133437825    
    0.6429307641328618         1.474562540799106    
    0.6493600717741903         1.465865571826880    
    0.6557893794155190         1.457091215504408    
    0.6622186870568476         1.448241507842456    
    0.6686479946981763         1.439318529568887    
    0.6750773023395048         1.430324403770398    
    0.6815066099808335         1.421261293493439    
    0.6879359176221621         1.412131399311271    
    0.6943652252634906         1.402936956864204    
    0.7007945329048193         1.393680234380099    
    0.7072238405461480         1.384363530181992    
    0.7136531481874765         1.374989170189653    
    0.7200824558288051         1.365559505421814    
    0.7265117634701338         1.356076909505662    
    0.7329410711114623         1.346543776199806    
    0.7393703787527910         1.336962516936881    
    0.7457996863941196         1.327335558391670    
    0.7522289940354482         1.317665340080356    
    0.7586583016767768         1.307954311996062    
    0.7650876093181055         1.298204932285723    
    0.7715169169594340         1.288419664972816    
    0.7779462246007627         1.278600977730131    
    0.7843755322420913         1.268751339706388    
    0.7908048398834200         1.258873219410070    
    0.7972341475247485         1.248969082653413    
    0.8036634551660772         1.239041390558999    
    0.8100927628074058         1.229092597631073    
    0.8165220704487344         1.219125149893179    
    0.8229513780900630         1.209141483093209    
    0.8293806857313917         1.199144020976703    
    0.8358099933727202         1.189135173628627    
    0.8422393010140489         1.179117335883608    
    0.8486686086553775         1.169092885804097    
    0.8550979162967061         1.159064183225555    
    0.8615272239380347         1.149033568367640    
    0.8679565315793634         1.139003360509697    
    0.8743858392206920         1.128975856728822    
    0.8808151468620206         1.118953330698506    
    0.8872444545033492         1.108938031545424    
    0.8936737621446779         1.098932182761984    
    0.9001030697860064         1.088937981171951    
    0.9065323774273351         1.078957595946286    
    0.9129616850686637         1.068993167666435    
    0.9193909927099922         1.059046807431937    
    0.9258203003513209         1.049120596009484    
    0.9322496079926496         1.039216583020335    
    0.9386789156339781         1.029336786163072    
    0.9451082232753067         1.019483190468865    
    0.9515375309166354         1.009657747586205    
    0.9579668385579639        0.9998623750924962    
    0.9643961461992926        0.9900989558297100    
    0.9708254538406212        0.9803693372617109    
    0.9772547614819498        0.9706753308508357    
    0.9836840691232784        0.9610187114515858    
    0.9901133767646071        0.9514012167194597    
    0.9965426844059357        0.9418245465331525    
     1.002971992047264        0.9322903624285730    
     1.009401299688593        0.9228002870433702    
     1.015830607329921        0.9133559035708099    
     1.022259914971250        0.9039587552222107    
     1.028689222612579        0.8946103446973003    
     1.035118530253907        0.8853121336620507    
     1.041547837895236        0.8760655422338085    
     1.047977145536565        0.8668719484738392    
     1.054406453177893        0.8577326878876637    
     1.060835760819222        0.8486490529334204    
     1.067265068460550        0.8396222925391903    
     1.073694376101879        0.8306536116300085    
     1.080123683743208        0.8217441706659201    
     1.086552991384536        0.8128950851919237    
     1.092982299025865        0.8041074254016182    
     1.099411606667194        0.7953822157157358    
     1.105840914308522        0.7867204343776535    
     1.112270221949851        0.7781230130672153    
     1.118699529591179        0.7695908365351768    
     1.125128837232508        0.7611247422598999    
     1.131558144873837        0.7527255201286583    
     1.137987452515165        0.7443939121453371    
     1.144416760156494        0.7361306121668239    
     1.150846067797823        0.7279362656701734    
     1.157275375439151        0.7198114695526369    
     1.163704683080480        0.7117567719667935    
     1.170133990721808        0.7037726721925364    
     1.176563298363137        0.6958596205484068    
     1.182992606004466        0.6880180183436703    
     1.189421913645794        0.6802482178736561    
     1.195851221287123        0.6725505224593783    
     1.202280528928451        0.6649251865338621    
     1.208709836569780        0.6573724157760574    
     1.215139144211109        0.6498923672942470    
     1.221568451852437        0.6424851498598942    
     1.227997759493766        0.6351508241931781    
     1.234427067135095        0.6278894033011564    
     1.240856374776423        0.6207008528692133    
     1.247285682417752        0.6135850917065566    
     1.253714990059080        0.6065419922460535    
     1.260144297700409        0.5995713810987285    
     1.266573605341738        0.5926730396561333    
     1.273002912983066        0.5858467046507366    
     1.279432220624395        0.5790920690375307    
     1.285861528265724        0.5724087832692134    
     1.292290835907052        0.5657964559032400    
     1.298720143548381        0.5592546524155091    
     1.305149451189709        0.5527828956013995    
     1.311578758831038        0.5463806712967285    
     1.318008066472367        0.5400474373764860    
     1.324437374113695        0.5337826336077308    
     1.330866681755024        0.5275856911520839    
     1.337295989396353        0.5214560399628152    
     1.343725297037681        0.5153931099868594    
     1.350154604679010        0.5093963294144740    
     1.356583912320338        0.5034651236466573    
     1.363013219961667        0.4975989161813106    
     1.369442527602996        0.4917971293765793    
     1.375871835244324        0.4860591847201631    
     1.382301142885653        0.4803845030607652    
     1.388730450526981        0.4747725048922180    
     1.395159758168310        0.4692226106316733    
     1.401589065809639        0.4637342408840319    
     1.408018373450967        0.4583068166982513    
     1.414447681092296        0.4529397598103688    
     1.420876988733624        0.4476324928658885    
     1.427306296374953        0.4423844396638785    
     1.433735604016282        0.4371950253541612    
     1.440164911657610        0.4320636766421337    
     1.446594219298939        0.4269898219614581    
     1.453023526940268        0.4219728917595065    
     1.459452834581596        0.4170123185647987    
     1.465882142222925        0.4121075371777374    
     1.472311449864253        0.4072579849143646    
     1.478740757505582        0.4024631017397048    
     1.485170065146911        0.3977223302679748    
     1.491599372788239        0.3930351158925600    
     1.498028680429568        0.3884009069679542    
     1.504457988070896        0.3838191549983765    
     1.510887295712225        0.3792893146138238    
     1.517316603353554        0.3748108436664175    
     1.523745910994882        0.3703832033370547    
     1.530175218636211        0.3660058582162646    
     1.536604526277540        0.3616782763742717    
     1.543033833918868        0.3573999294299273    
     1.549463141560197        0.3531702926131407    
     1.555892449201525        0.3489888448243881    
     1.562321756842854        0.3448550686892213    
     1.568751064484183        0.3407684506082878    
     1.575180372125511        0.3367284808033397    
     1.581609679766840        0.3327346533592892    
     1.588038987408168        0.3287864662624475    
     1.594468295049497        0.3248834214352214    
     1.600897602690826        0.3210250247673244    
     1.607326910332154        0.3172107861436628    
     1.613756217973483        0.3134402194691048    
     1.620185525614812        0.3097128426902058    
     1.626614833256140        0.3060281778140294    
     1.633044140897469        0.3023857509242311    
     1.639473448538797        0.2987850921944903    
     1.645902756180126        0.2952257358994265    
     1.652332063821455        0.2917072204231004    
     1.658761371462783        0.2882290882652251    
     1.665190679104112        0.2847908860451931    
     1.671619986745440        0.2813921645039916    
     1.678049294386769        0.2780324785041431    
     1.684478602028098        0.2747113870277625    
     1.690907909669426        0.2714284531727894    
     1.697337217310755        0.2681832441474973    
     1.703766524952084        0.2649753312634294    
     1.710195832593412        0.2618042899267401    
     1.716625140234741        0.2586696996280623    
     1.723054447876069        0.2555711439310465    
     1.729483755517398        0.2525082104595497    
     1.735913063158727        0.2494804908835441    
     1.742342370800055        0.2464875809039359    
     1.748771678441384        0.2435290802362372    
     1.755200986082712        0.2406045925931632    
     1.761630293724041        0.2377137256663054    
     1.768059601365370        0.2348560911068919    
     1.774488909006698        0.2320313045055496    
     1.780918216648027        0.2292389853713856    
     1.787347524289356        0.2264787571104221    
     1.793776831930684        0.2237502470030737    
     1.800206139572013        0.2210530861806007    
     1.806635447213341        0.2183869096020789    
     1.813064754854670        0.2157513560281377    
     1.819494062495999        0.2131460680029438    
     1.825923370137327        0.2105706918214298    
     1.832352677778656        0.2080248775070472    
     1.838781985419984        0.2055082787760953    
     1.845211293061313        0.2030205530148256    
     1.851640600702642        0.2005613612586580    
     1.858069908343970        0.1981303681618295    
     1.864499215985299        0.1957272419838016    
     1.870928523626628        0.1933516545494111    
     1.877357831267956        0.1910032812197668    
     1.883787138909285        0.1886818008642238    
     1.890216446550613        0.1863868958317765    
     1.896645754191942        0.1841182519220839    
     1.903075061833271        0.1818755583563282    
     1.909504369474599        0.1796585077479244    
     1.915933677115928        0.1774667960732207    
     1.922362984757257        0.1753001226420587    
     1.928792292398585        0.1731581900682529    
     1.935221600039914        0.1710407042399885    
     1.941650907681242        0.1689473742901658    
     1.948080215322571        0.1668779125667128    
     1.954509522963900        0.1648320346028808    
     1.960938830605228        0.1628094590875260    
     1.967368138246557        0.1608099078354021    
     1.973797445887886        0.1588331057574738    
     1.980226753529214        0.1568787808312644    
     1.986656061170543        0.1549466640712459    
     1.993085368811871        0.1530364894992897    
     1.999514676453200        0.1511479941151813    
     2.005943984094529        0.1492809178672146    
     2.012373291735857        0.1474350036228710    
     2.018802599377186        0.1456099971395963    
     2.025231907018514        0.1438056470356829    
     2.031661214659843        0.1420217047612625    
     2.038090522301172        0.1402579245694216    
     2.044519829942500        0.1385140634874436    
     2.050949137583829        0.1367898812881865    
     2.057378445225158        0.1350851404616006    
     2.063807752866486        0.1333996061863941    
     2.070237060507815        0.1317330463018505    
     2.076666368149144        0.1300852312798056    
     2.083095675790472        0.1284559341967855    
     2.089524983431801        0.1268449307063150    
     2.095954291073129        0.1252519990113948    
     2.102383598714458        0.1236769198371572    
     2.108812906355786        0.1221194764037023    
     2.115242213997115        0.1205794543991147    
     2.121671521638444        0.1190566419526678    
     2.128100829279772        0.1175508296082188    
     2.134530136921101        0.1160618102977957    
     2.140959444562430        0.1145893793153802    
     2.147388752203758        0.1131333342908816    
     2.153818059845087        0.1116934751643187    
     2.160247367486416        0.1102696041601980    
     2.166676675127744        0.1088615257620959    
     2.173105982769073        0.1074690466874402    
     2.179535290410402        0.1060919758625061    
     2.185964598051730        0.1047301243976132    
     2.192393905693058        0.1033833055625343    
     2.198823213334387        0.1020513347621033    
     2.205252520975716        0.1007340295120458    
     2.211681828617044        0.9943120941501156E-01
     2.218111136258373        0.9814269613682179E-01
     2.224540443899702        0.9686831338291925E-01
     2.230969751541030        0.9560788687503873E-01
     2.237399059182359        0.9436124432808549E-01
     2.243828366823688        0.9312821542722675E-01
     2.250257674465016        0.9190863180518513E-01
     2.256686982106345        0.9070232701975298E-01
     2.263116289747673        0.8950913653151700E-01
     2.269545597389002        0.8832889768179041E-01
     2.275974905030330        0.8716144967075187E-01
     2.282404212671659        0.8600663353579466E-01
     2.288833520312988        0.8486429213009233E-01
     2.295262827954316        0.8373427010136669E-01
     2.301692135595645        0.8261641387086228E-01
     2.308121443236974        0.8151057161251991E-01
     2.314550750878302        0.8041659323237671E-01
     2.320980058519631        0.7933433034815353E-01
     2.327409366160960        0.7826363626905676E-01
     2.333838673802288        0.7720436597576438E-01
     2.340267981443617        0.7615637610063827E-01
     2.346697289084945        0.7511952490812490E-01
     2.353126596726274        0.7409367227535980E-01
     2.359555904367602        0.7307867967295756E-01
     2.365985212008931        0.7207441014601330E-01
     2.372414519650260        0.7108072829530077E-01
     2.378843827291588        0.7009750025865932E-01
     2.385273134932917        0.6912459369257663E-01
     2.391702442574246        0.6816187775395001E-01
     2.398131750215574        0.6720922308206675E-01
     2.404561057856903        0.6626650178075373E-01
     2.410990365498232        0.6533358740072645E-01
     2.417419673139560        0.6441035492209986E-01
     2.423848980780889        0.6349668073711728E-01
     2.430278288422217        0.6259244263304903E-01
     2.436707596063546        0.6169751977527402E-01
     2.443136903704874        0.6081179269054105E-01
     2.449566211346203        0.5993514325039881E-01
     2.455995518987532        0.5906745465483222E-01
     2.462424826628860        0.5820861141605471E-01
     2.468854134270189        0.5735849934248682E-01
     2.475283441911518        0.5651700552288098E-01
     2.481712749552846        0.5568401831065550E-01
     2.488142057194175        0.5485942730838343E-01
     2.494571364835504        0.5404312335244932E-01
     2.501000672476832        0.5323499849788035E-01
     2.507429980118161        0.5243494600331463E-01
     2.513859287759489        0.5164286031618291E-01
     2.520288595400818        0.5085863705802189E-01
     2.526717903042146        0.5008217300996016E-01
     2.533147210683475        0.4931336609834888E-01
     2.539576518324804        0.4855211538056218E-01
     2.546005825966132        0.4779832103096615E-01
     2.552435133607461        0.4705188432702889E-01
     2.558864441248790        0.4631270763559599E-01
     2.565293748890118        0.4558069439928708E-01
     2.571723056531447        0.4485574912308673E-01
     2.578152364172776        0.4413777736106593E-01
     2.584581671814104        0.4342668570325152E-01
     2.591010979455433        0.4272238176265005E-01
     2.597440287096761        0.4202477416238257E-01
     2.603869594738090        0.4133377252301909E-01
     2.610298902379419        0.4064928745002165E-01
     2.616728210020747        0.3997123052133587E-01
     2.623157517662076        0.3929951427512374E-01
     2.629586825303404        0.3863405219760893E-01
     2.636016132944733        0.3797475871110959E-01
     2.642445440586062        0.3732154916217158E-01
     2.648874748227390        0.3667433980984666E-01
     2.655304055868719        0.3603304781409702E-01
     2.661733363510048        0.3539759122431894E-01
     2.668162671151376        0.3476788896803562E-01
     2.674591978792705        0.3414386083968769E-01
     2.681021286434033        0.3352542748956215E-01
     2.687450594075362        0.3291251041283778E-01
     2.693879901716691        0.3230503193874907E-01
     2.700309209358019        0.3170291521990645E-01
     2.706738516999348        0.3110608422171146E-01
     2.713167824640677        0.3051446371190156E-01
     2.719597132282005        0.2992797925020632E-01
     2.726026439923334        0.2934655717811410E-01
     2.732455747564662        0.2877012460879097E-01
     2.738885055205991        0.2819860941708518E-01
     2.745314362847320        0.2763194022965641E-01
     2.751743670488648        0.2707004641521453E-01
     2.758172978129977        0.2651285807485106E-01
     2.764602285771305        0.2596030603252878E-01
     2.771031593412634        0.2541232182564439E-01
     2.777460901053963        0.2486883769570997E-01
     2.783890208695291        0.2432978657914417E-01
     2.790319516336620        0.2379510209813753E-01
     2.796748823977949        0.2326471855168242E-01
     2.803178131619277        0.2273857090666287E-01
     2.809607439260606        0.2221659478906042E-01
     2.816036746901935        0.2169872647526531E-01
     2.822466054543263        0.2118490288345167E-01
     2.828895362184592        0.2067506156511138E-01
     2.835324669825920        0.2016914069664750E-01
     2.841753977467249        0.1966707907107251E-01
     2.848183285108577        0.1916881608980997E-01
     2.854612592749906        0.1867429175455822E-01
     2.861041900391235        0.1818344665929003E-01
     2.867471208032563        0.1769622198232800E-01
     2.873900515673892        0.1721255947850644E-01
     2.880329823315221        0.1673240147143236E-01
     2.886759130956549        0.1625569084581885E-01
     2.893188438597878        0.1578237103991387E-01
     2.899617746239207        0.1531238603803496E-01
     2.906047053880535        0.1484568036316820E-01
     2.912476361521864        0.1438219907139583E-01
     2.918905669163192        0.1392188784398788E-01
     2.925334976804521        0.1346469419203636E-01
     2.931764284445849        0.1301057279447734E-01
     2.938193592087178        0.1255949722903069E-01
     2.944622899728507        0.1211147590751265E-01
     2.951052207369835        0.1166656737437708E-01
     2.957481515011164        0.1122489114727103E-01
     2.963910822652493        0.1078663263985787E-01
     2.970340130293821        0.1035204252982017E-01
     2.976769437935150        0.9921431810155108E-02
     2.983198745576479        0.9495163950221618E-02
     2.989628053217807        0.9073645431588272E-02
     2.996057360859136        0.8657315641336077E-02
     3.002486668500465        0.8246636820594944E-02
     3.008915976141793        0.7842084526259150E-02
     3.015345283783121        0.7444138880492083E-02
     3.021774591424450        0.7053276750662875E-02
     3.028203899065779        0.6669964911875242E-02
     3.034633206707107        0.6294654185039867E-02
     3.041062514348436        0.5927774506540849E-02
     3.047491821989765        0.5569730864295339E-02
     3.053921129631093        0.5220900024259092E-02
     3.060350437272422        0.4881627967548615E-02
     3.066779744913751        0.4552227958771614E-02
     3.073209052555079        0.4232979169252484E-02
     3.079638360196408        0.3924125783147091E-02
     3.086067667837736        0.3625876519460244E-02
     3.092496975479065        0.3338404507903953E-02
     3.098926283120393        0.3061847461046206E-02
     3.105355590761722        0.2796308088933234E-02
     3.111784898403051        0.2541854704973004E-02
     3.118214206044379        0.2298521972784746E-02
     3.124643513685708        0.2066311742376846E-02
     3.131072821327037        0.1845193919104335E-02
     3.137502128968365        0.1635107298376647E-02
     3.143931436609694        0.1435960279302219E-02
     3.150360744251023        0.1247631334232346E-02
     3.156790051892351        0.1069969044390401E-02
     3.163219359533680        0.9027913846986152E-03
     3.169648667175008        0.7458836863981548E-03
     3.176077974816337        0.5989941594049676E-03
     3.182507282457665        0.4618245678636691E-03
     3.188936590098994        0.3340102089934622E-03
     3.195365897740323        0.2150723447596595E-03
     3.201795205381651        0.1042796585936790E-03
     3.208224513022980         0.000000000000000    
  0  2  2  0  0.000000   #orbital l, n, z, is_polarized, population
 500    0.4104600967463896E-02     2.048195882764484     # npts, delta, cutoff
     0.000000000000000         2.338053283304935    
    0.4104600967463896E-02     2.338003681069860    
    0.8209201934927792E-02     2.337959526123299    
    0.1231380290239169E-01     2.337885855775637    
    0.1641840386985558E-01     2.337782447980316    
    0.2052300483731948E-01     2.337649022876900    
    0.2462760580478338E-01     2.337485233798117    
    0.2873220677224727E-01     2.337290671696557    
    0.3283680773971117E-01     2.337064872145746    
    0.3694140870717506E-01     2.336807323521849    
    0.4104600967463896E-01     2.336517475900806    
    0.4515061064210286E-01     2.336194750366205    
    0.4925521160956675E-01     2.335838548462619    
    0.5335981257703065E-01     2.335448261546516    
    0.5746441354449455E-01     2.335023279803293    
    0.6156901451195845E-01     2.334563000719327    
    0.6567361547942234E-01     2.334066836822948    
    0.6977821644688624E-01     2.333534222537912    
    0.7388281741435013E-01     2.332964620025448    
    0.7798741838181403E-01     2.332357523925998    
    0.8209201934927793E-01     2.331712464947337    
    0.8619662031674181E-01     2.331029012280961    