<preamble>

<basis_specs>
===============================================================================
H.4                  Z=   1    Mass=  1.0080        Charge= 0.17977+309
Lmxo=1 Lmxkb= 1    BasisType=split      Semic=F
L=0  Nsemic=0  Cnfigmx=1
          i=1  nzeta=2  polorb=1  (1s)  (to be polarized perturbatively)
            splnorm:   0.15000    
               vcte:    40.000    
               rinn:    4.7330    
               qcoe:    0.0000    
               qyuk:    0.0000    
               qwid:   0.10000E-01
                rcs:    5.2537      3.5289    
            lambdas:    1.0000      1.0000    
L=1  Nsemic=0  Cnfigmx=2
          i=1  nzeta=0  polorb=0  (2p)  (perturbative polarization orbital) (from 1s)
-------------------------------------------------------------------------------
L=0  Nkbl=1  erefs: 0.17977+309
L=1  Nkbl=1  erefs: 0.17977+309
===============================================================================
</basis_specs>

<pseudopotential_header>
 H  pb nrl nc  
 ONCVPSP-3.2017-10-31Hamann's oncvpsp                        
 1s 1.00  r= 1.01/2p 0.00  r= 0.71/                                     1s:
</pseudopotential_header>
</preamble>
H                             # Symbol
H.4                           # Label
    1                         # Atomic number
     1.00000000000                             # Valence charge
     1.00800000000        # Mass 
     2.27454303330        # Self energy 
   1   3                      # Lmax for basis, no. of nl orbitals 
   1   3                      # Lmax for projectors, no. of nl KB projectors
# PAOs:__________________________
  0  1  1  0  1.000000   #orbital l, n, z, is_polarized, population
 500    0.1052841063233948E-01     5.253676905537403     # npts, delta, cutoff
     0.000000000000000         1.607125358013031    
    0.1052841063233948E-01     1.606889463872051    
    0.2105682126467897E-01     1.606186928834663    
    0.3158523189701845E-01     1.605007690977473    
    0.4211364252935794E-01     1.603343141763379    
    0.5264205316169743E-01     1.601187227743836    
    0.6317046379403690E-01     1.598539187854363    
    0.7369887442637639E-01     1.595404375099918    
    0.8422728505871588E-01     1.591793242278795    
    0.9475569569105537E-01     1.587719284126099    
    0.1052841063233949         1.583196914339237    
    0.1158125169557343         1.578239977999896    
    0.1263409275880738         1.572861130630075    
    0.1368693382204133         1.567071925991485    
    0.1473977488527528         1.560883278757539    
    0.1579261594850923         1.554305988947796    
    0.1684545701174318         1.547351137657981    
    0.1789829807497712         1.540030293876420    
    0.1895113913821107         1.532355558198539    
    0.2000398020144502         1.524339502868471    
    0.2105682126467897         1.515995064973505    
    0.2210966232791292         1.507335431567708    
    0.2316250339114687         1.498373936607467    
    0.2421534445438082         1.489123976257968    
    0.2526818551761476         1.479598942078932    
    0.2632102658084871         1.469812169035728    
    0.2737386764408266         1.459776895107526    
    0.2842670870731661         1.449506229975506    
    0.2947954977055056         1.439013131076621    
    0.3053239083378451         1.428310385906778    
    0.3158523189701846         1.417410599812607    
    0.3263807296025240         1.406326188681670    
    0.3369091402348635         1.395069375997233    
    0.3474375508672030         1.383652193721078    
    0.3579659614995425         1.372086486439379    
    0.3684943721318820         1.360383918174498    
    0.3790227827642215         1.348555981237093    
    0.3895511933965609         1.336614006474858    
    0.4000796040289004         1.324569174268220    
    0.4106080146612399         1.312432525629089    
    0.4211364252935794         1.300214972778474    
    0.4316648359259189         1.287927308609526    
    0.4421932465582584         1.275580214485545    
    0.4527216571905979         1.263184265876343    
    0.4632500678229373         1.250749935399025    
    0.4737784784552768         1.238287592901202    
    0.4843068890876163         1.225807502302655    
    0.4948352997199558         1.213319814995504    
    0.5053637103522952         1.200834559690842    
    0.5158921209846348         1.188361628762773    
    0.5264205316169742         1.175910761035549    
    0.5369489422493138         1.163491520664791    
    0.5474773528816532         1.151113274130332    
    0.5580057635139927         1.138785163495336    
    0.5685341741463322         1.126516077540639    
    0.5790625847786717         1.114314620981369    
    0.5895909954110111         1.102189082291928    
    0.6001194060433507         1.090147400712002    
    0.6106478166756901         1.078197133043870    
    0.6211762273080296         1.066345420875675    
    0.6317046379403691         1.054598958876056    
    0.6422330485727086         1.042963964805818    
    0.6527614592050480         1.031446151875901    
    0.6632898698373876         1.020050704054962    
    0.6738182804697270         1.008782254888708    
    0.6843466911020665        0.9976448703420276    
    0.6948751017344060        0.9866420361121243    
    0.7054035123667455        0.9757766497887701    
    0.7159319229990849        0.9650510181576278    
    0.7264603336314245        0.9544668598557501    
    0.7369887442637639        0.9440253134967925    
    0.7475171548961034        0.9337269512889044    
    0.7580455655284429        0.9235717980724990    
    0.7685739761607824        0.9135593556100696    
    0.7791023867931218        0.9036886318679330    
    0.7896307974254614        0.8939581749417382    
    0.8001592080578008        0.8843661111957005    
    0.8106876186901403        0.8749101871111377    
    0.8212160293224798        0.8655878142746640    
    0.8317444399548193        0.8563961168810406    
    0.8422728505871588        0.8473319810817203    
    0.8528012612194983        0.8383921054777996    
    0.8633296718518377        0.8295730520362927    
    0.8738580824841773        0.8208712967013586    
    0.8843864931165167        0.8122832789776018    
    0.8949149037488562        0.8038054497804892    
    0.9054433143811957        0.7954343168789115    
    0.9159717250135352        0.7871664872962816    
    0.9265001356458746        0.7789987060885853    
    0.9370285462782142        0.7709278909792647    
    0.9475569569105536        0.7629511624007372    
    0.9580853675428931        0.7550658685693384    
    0.9686137781752326        0.7472696053028433    
    0.9791421888075721        0.7395602303938476    
    0.9896705994399115        0.7319358724934097    
     1.000199010072251        0.7243949328015142    
     1.010727420704590        0.7169360893769336    
     1.021255831336930        0.7095582606086263    
     1.031784241969270        0.7022604857403628    
     1.042312652601609        0.6950418252078038    
     1.052841063233948        0.6879013475494611    
     1.063369473866288        0.6808381340583622    
     1.073897884498628        0.6738512770736904    
     1.084426295130967        0.6669398800467983    
     1.094954705763306        0.6601030574831647    
     1.105483116395646        0.6533399347950903    
     1.116011527027985        0.6466496481985686    
     1.126539937660325        0.6400313445952660    
     1.137068348292664        0.6334841814574912    
     1.147596758925004        0.6270073267129053    
     1.158125169557343        0.6205999586294727    
     1.168653580189683        0.6142612657004649    
     1.179181990822022        0.6079904465297589    
     1.189710401454362        0.6017867097174545    
     1.200238812086701        0.5956492737458103    
     1.210767222719041        0.5895773668656606    
     1.221295633351380        0.5835702269832164    
     1.231824043983720        0.5776271015473542    
     1.242352454616059        0.5717472474374756    
     1.252880865248399        0.5659299308519673    
     1.263409275880738        0.5601744271972242    
     1.273937686513078        0.5544800209772721    
     1.284466097145417        0.5488460056841540    
     1.294994507777757        0.5432716836889855    
     1.305522918410096        0.5377563661337215    
     1.316051329042436        0.5322993728236414    
     1.326579739674775        0.5269000321206719    
     1.337108150307114        0.5215576808375005    
     1.347636560939454        0.5162716641324255    
     1.358164971571794        0.5110413354051098    
     1.368693382204133        0.5058660561931692    
     1.379221792836473        0.5007451960695789    
     1.389750203468812        0.4956781325409922    
     1.400278614101151        0.4906642509469422    
     1.410807024733491        0.4857029443599264    
     1.421335435365831        0.4807936134863930    
     1.431863845998170        0.4759356665686380    
     1.442392256630509        0.4711285192876472    
     1.452920667262849        0.4663715946668526    
     1.463449077895188        0.4616643229768054    
     1.473977488527528        0.4570061416407978    
     1.484505899159867        0.4523964951414263    
     1.495034309792207        0.4478348349281234    
     1.505562720424546        0.4433206193256117    
     1.516091131056886        0.4388533134432748    
     1.526619541689225        0.4344323890855332    
     1.537147952321565        0.4300573246631750    
     1.547676362953904        0.4257276051055953    
     1.558204773586244        0.4214427217740031    
     1.568733184218583        0.4172021723755860    
     1.579261594850923        0.4130054608786228    
     1.589790005483262        0.4088520974285529    
     1.600318416115602        0.4047415982649752    
     1.610846826747941        0.4006734856395937    
     1.621375237380281        0.3966472877351130    
     1.631903648012620        0.3926625385850730    
     1.642432058644960        0.3887187779946026    
     1.652960469277299        0.3848155514621194    
     1.663488879909639        0.3809524101019696    
     1.674017290541978        0.3771289105679776    
     1.684545701174318        0.3733446149779108    
     1.695074111806657        0.3695990908388686    
     1.705602522438997        0.3658919109735869    
     1.716130933071336        0.3622226534476485    
     1.726659343703675        0.3585909014976040    
     1.737187754336015        0.3549962434599754    
     1.747716164968355        0.3514382727011528    
     1.758244575600694        0.3479165875481950    
     1.768772986233033        0.3444307912205185    
     1.779301396865373        0.3409804917624384    
     1.789829807497712        0.3375653019765883    
     1.800358218130052        0.3341848393582194    
     1.810886628762391        0.3308387260303647    
     1.821415039394731        0.3275265886798405    
     1.831943450027070        0.3242480584941032    
     1.842471860659410        0.3210027710989545    
     1.853000271291749        0.3177903664970899    
     1.863528681924089        0.3146104890074649    
     1.874057092556428        0.3114627872054910    
     1.884585503188768        0.3083469138640553    
     1.895113913821107        0.3052625258953509    
     1.905642324453447        0.3022092842935143    
     1.916170735085786        0.2991868540780629    
     1.926699145718126        0.2961949042381257    
     1.937227556350465        0.2932331076774618    
     1.947755966982805        0.2903011411602586    
     1.958284377615144        0.2873986852576997    
     1.968812788247484        0.2845254242953014    
     1.979341198879823        0.2816810463010126    
     1.989869609512163        0.2788652429540696    
     2.000398020144502        0.2760777095345877    
     2.010926430776842        0.2733181448738952    
     2.021454841409181        0.2705862513055990    
     2.031983252041520        0.2678817346173754    
     2.042511662673860        0.2652043040034779    
     2.053040073306200        0.2625536720179491    
     2.063568483938539        0.2599295545285389    
     2.074096894570879        0.2573316706713172    
     2.084625305203218        0.2547597428059850    
     2.095153715835557        0.2522134964718428    
     2.105682126467897        0.2496926603444359    
     2.116210537100236        0.2471969661928695    
     2.126738947732576        0.2447261488377795    
     2.137267358364916        0.2422799461099537    
     2.147795768997255        0.2398580988095871    
     2.158324179629594        0.2374603506661716    
     2.168852590261934        0.2350864482990120    
     2.179381000894273        0.2327361411783566    
     2.189909411526613        0.2304091815871374    
     2.200437822158952        0.2281053245833100    
     2.210966232791292        0.2258243279627853    
     2.221494643423631        0.2235659522229467    
     2.232023054055971        0.2213299605267428    
     2.242551464688310        0.2191161186673495    
     2.253079875320650        0.2169241950333893    
     2.263608285952989        0.2147539605747047    
     2.274136696585329        0.2126051887686739    
     2.284665107217668        0.2104776555870645    
     2.295193517850008        0.2083711394634114    
     2.305721928482347        0.2062854212609168    
     2.316250339114687        0.2042202842408600    
     2.326778749747026        0.2021755140315123    
     2.337307160379366        0.2001508985975456    
     2.347835571011705        0.1981462282099276    
     2.358363981644044        0.1961612954162997    
     2.368892392276384        0.1941958950118238    
     2.379420802908724        0.1922498240104928    
     2.389949213541063        0.1903228816168991    
     2.400477624173403        0.1884148691984483    
     2.411006034805742        0.1865255902580143    
     2.421534445438081        0.1846548504070298    
     2.432062856070421        0.1828024573389964    
     2.442591266702760        0.1809682208034176    
     2.453119677335100        0.1791519525801410    
     2.463648087967440        0.1773534664541005    
     2.474176498599779        0.1755725781904577    
     2.484704909232118        0.1738091055101292    
     2.495233319864458        0.1720628680656928    
     2.505761730496797        0.1703336874176758    
     2.516290141129137        0.1686213870112016    
     2.526818551761477        0.1669257921530028    
     2.537346962393816        0.1652467299887853    
     2.547875373026155        0.1635840294809371    
     2.558403783658495        0.1619375213865814    
     2.568932194290834        0.1603070382359626    
     2.579460604923174        0.1586924143111569    
     2.589989015555513        0.1570934856251058    
     2.600517426187853        0.1555100899009685    
     2.611045836820192        0.1539420665517713    
     2.621574247452532        0.1523892566603736    
     2.632102658084871        0.1508515029597241    
     2.642631068717211        0.1493286498134053    
     2.653159479349550        0.1478205431964700    
     2.663687889981889        0.1463270306765561    
     2.674216300614229        0.1448479613952687    
     2.684744711246569        0.1433831860498425    
     2.695273121878908        0.1419325568750623    
     2.705801532511248        0.1404959276254373    
     2.716329943143587        0.1390731535576402    
     2.726858353775927        0.1376640914131890    
     2.737386764408266        0.1362685994013676    
     2.747915175040605        0.1348865371823956    
     2.758443585672945        0.1335177658508327    
     2.768971996305285        0.1321621479192006    
     2.779500406937624        0.1308195473018474    
     2.790028817569964        0.1294898292990245    
     2.800557228202303        0.1281728605811796    
     2.811085638834642        0.1268685091734670    
     2.821614049466982        0.1255766444404708    
     2.832142460099321        0.1242971370711243    
     2.842670870731661        0.1230298590638357    
     2.853199281364001        0.1217746837118196    
     2.863727691996340        0.1205314855886140    
     2.874256102628679        0.1193001405337872    
     2.884784513261019        0.1180805256388448    
     2.895312923893358        0.1168725192333114    
     2.905841334525698        0.1156760008709857    
     2.916369745158037        0.1144908513163961    
     2.926898155790377        0.1133169525314195    
     2.937426566422716        0.1121541876620666    
     2.947954977055056        0.1110024410254491    
     2.958483387687395        0.1098615980969102    
     2.969011798319735        0.1087315454973137    
     2.979540208952074        0.1076121709804974    
     2.990068619584414        0.1065033634208940    
     3.000597030216753        0.1054050128013046    
     3.011125440849093        0.1043170102008136    
     3.021653851481432        0.1032392477828852    
     3.032182262113772        0.1021716187878043    
     3.042710672746111        0.1011140175274616    
     3.053239083378450        0.1000663393490488    
     3.063767494010790        0.9902848063673941E-01
     3.074295904643130        0.9800033880170740E-01
     3.084824315275469        0.9698181227106635E-01
     3.095352725907809        0.9597280047697317E-01
     3.105881136540148        0.9497320384585632E-01
     3.116409547172487        0.9398292378776554E-01
     3.126937957804827        0.9300186268587765E-01
     3.137466368437166        0.9202992388612900E-01
     3.147994779069506        0.9106701168697540E-01
     3.158523189701846        0.9011303132926851E-01
     3.169051600334185        0.8916788898629067E-01
     3.179580010966524        0.8823149175389927E-01
     3.190108421598864        0.8730374764078754E-01
     3.200636832231203        0.8638456555888392E-01
     3.211165242863543        0.8547385531387569E-01
     3.221693653495882        0.8457152759585271E-01
     3.232222064128222        0.8367749397004759E-01
     3.242750474760561        0.8279166686773844E-01
     3.253278885392901        0.8191395957724563E-01
     3.263807296025240        0.8104428623504688E-01
     3.274335706657580        0.8018256181700352E-01
     3.284864117289919        0.7932870212972526E-01
     3.295392527922259        0.7848262380203734E-01
     3.305920938554598        0.7764424427654389E-01
     3.316449349186938        0.7681348180132928E-01
     3.326977759819277        0.7599025542176864E-01
     3.337506170451617        0.7517448497244687E-01
     3.348034581083956        0.7436609106916600E-01
     3.358562991716296        0.7356499510109925E-01
     3.369091402348635        0.7277111922303557E-01
     3.379619812980974        0.7198438634773635E-01
     3.390148223613314        0.7120472013837317E-01
     3.400676634245654        0.7043204500112034E-01
     3.411205044877993        0.6966628607782348E-01
     3.421733455510333        0.6890736923877587E-01
     3.432261866142672        0.6815522107558558E-01
     3.442790276775011        0.6740976889418089E-01
     3.453318687407351        0.6667094070789525E-01
     3.463847098039690        0.6593866523064984E-01
     3.474375508672030        0.6521287187023372E-01
     3.484903919304370        0.6449349072171211E-01
     3.495432329936709        0.6378045256091212E-01
     3.505960740569048        0.6307368883800001E-01
     3.516489151201388        0.6237313167116015E-01
     3.527017561833727        0.6167871384038975E-01
     3.537545972466067        0.6099036878137325E-01
     3.548074383098407        0.6030803057943965E-01
     3.558602793730746        0.5963163396362128E-01
     3.569131204363085        0.5896111430082427E-01
     3.579659614995425        0.5829640759007162E-01
     3.590188025627764        0.5763745045682951E-01
     3.600716436260104        0.5698418014742576E-01
     3.611244846892443        0.5633653452357762E-01
     3.621773257524783        0.5569445205698776E-01
     3.632301668157122        0.5505787182402081E-01
     3.642830078789462        0.5442673350045819E-01
     3.653358489421801        0.5380097735636868E-01
     3.663886900054141        0.5318054425103389E-01
     3.674415310686480        0.5256537562795850E-01
     3.684943721318820        0.5195541350993601E-01
     3.695472131951159        0.5135060049424126E-01
     3.706000542583499        0.5075087974786290E-01
     3.716528953215838        0.5015619500282222E-01
     3.727057363848178        0.4956649055152876E-01
     3.737585774480517        0.4898171124226635E-01
     3.748114185112857        0.4840180247470838E-01
     3.758642595745196        0.4782671019551706E-01
     3.769171006377535        0.4725638089396624E-01
     3.779699417009875        0.4669076159768619E-01
     3.790227827642215        0.4612979986843937E-01
     3.800756238274554        0.4557344379796317E-01
     3.811284648906894        0.4502164200384595E-01
     3.821813059539233        0.4447434362548405E-01
     3.832341470171572        0.4393149832009236E-01
     3.842869880803912        0.4339305625875681E-01
     3.853398291436251        0.4285896812253534E-01
     3.863926702068591        0.4232918509858338E-01
     3.874455112700931        0.4180365887637561E-01
     3.884983523333270        0.4128234164393153E-01
     3.895511933965609        0.4076518608409820E-01
     3.906040344597949        0.4025214537083071E-01
     3.916568755230288        0.3974317316556622E-01
     3.927097165862628        0.3923822361359790E-01
     3.937625576494967        0.3873725134048843E-01
     3.948153987127307        0.3824021144849619E-01
     3.958682397759646        0.3774705951303251E-01
     3.969210808391986        0.3725775157916530E-01
     3.979739219024325        0.3677224415811970E-01
     3.990267629656665        0.3629049422381204E-01
     4.000796040289004        0.3581245920935822E-01
     4.011324450921344        0.3533809700366090E-01
     4.021852861553683        0.3486736594796675E-01
     4.032381272186023        0.3440022483244545E-01
     4.042909682818362        0.3393663289276371E-01
     4.053438093450701        0.3347654980666299E-01
     4.063966504083041        0.3301993569056619E-01
     4.074494914715380        0.3256675109615923E-01
     4.085023325347720        0.3211695700698378E-01
     4.095551735980060        0.3167051483499379E-01
     4.106080146612399        0.3122738641715221E-01
     4.116608557244739        0.3078753401199375E-01
     4.127136967877078        0.3035092029618190E-01
     4.137665378509418        0.2991750836105325E-01
     4.148193789141757        0.2948726170912733E-01
     4.158722199774097        0.2906014425064391E-01
     4.169250610406436        0.2863612030005028E-01
     4.179779021038775        0.2821515457248209E-01
     4.190307431671115        0.2779721218020928E-01
     4.200835842303454        0.2738225862906832E-01
     4.211364252935794        0.2697025981488265E-01
     4.221892663568133        0.2656118201984320E-01
     4.232421074200473        0.2615499190887267E-01
     4.242949484832812        0.2575165652594121E-01
     4.253477895465152        0.2535114329038213E-01
     4.264006306097492        0.2495341999316865E-01
     4.274534716729831        0.2455845479315770E-01
     4.285063127362171        0.2416621621331056E-01
     4.295591537994510        0.2377667313686203E-01
     4.306119948626849        0.2338979480348939E-01
     4.316648359259188        0.2300555080543320E-01
     4.327176769891528        0.2262391108358897E-01
     4.337705180523868        0.2224484592357070E-01
     4.348233591156207        0.2186832595172660E-01
     4.358762001788547        0.2149432213115192E-01
     4.369290412420886        0.2112280575765271E-01
     4.379818823053226        0.2075374845568385E-01
     4.390347233685565        0.2038712217425859E-01
     4.400875644317905        0.2002289918281809E-01
     4.411404054950244        0.1966105206709288E-01
     4.421932465582584        0.1930155372492398E-01
     4.432460876214923        0.1894437736206070E-01
     4.442989286847262        0.1858949648793464E-01
     4.453517697479602        0.1823688491140102E-01
     4.464046108111941        0.1788651673647402E-01
     4.474574518744281        0.1753836635802983E-01
     4.485102929376620        0.1719240845749286E-01
     4.495631340008960        0.1684861799850555E-01
     4.506159750641300        0.1650697022257581E-01
     4.516688161273639        0.1616744064472087E-01
     4.527216571905979        0.1583000504909196E-01
     4.537744982538318        0.1549463948458971E-01
     4.548273393170658        0.1516132026047255E-01
     4.558801803802996        0.1483002394195487E-01
     4.569330214435336        0.1450072734580718E-01
     4.579858625067676        0.1417340753595107E-01
     4.590387035700015        0.1384804181905419E-01
     4.600915446332355        0.1352460774012931E-01
     4.611443856964694        0.1320308307813719E-01
     4.621972267597034        0.1288344584159809E-01
     4.632500678229373        0.1256567426421230E-01
     4.643029088861713        0.1224974680049258E-01
     4.653557499494053        0.1193564212141206E-01
     4.664085910126392        0.1162333911006836E-01
     4.674614320758732        0.1131281685736869E-01
     4.685142731391070        0.1100405465773403E-01
     4.695671142023410        0.1069703200482984E-01
     4.706199552655749        0.1039172858732202E-01
     4.716727963288089        0.1008812428466275E-01
     4.727256373920429        0.9786199162909317E-02
     4.737784784552768        0.9485933470571939E-02
     4.748313195185108        0.9187307634501063E-02
     4.758841605817447        0.8890302255812109E-02
     4.769370016449787        0.8594898107560291E-02
     4.779898427082126        0.8301076227970995E-02
     4.790426837714466        0.8008819099586501E-02
     4.800955248346805        0.7718115842704563E-02
     4.811483658979145        0.7428973560990955E-02
     4.822012069611484        0.7141432616054434E-02
     4.832540480243823        0.6855581063267683E-02
     4.843068890876163        0.6571564538796639E-02
     4.853597301508502        0.6289590230967793E-02
     4.864125712140842        0.6009925358532874E-02
     4.874654122773181        0.5732891426328745E-02
     4.885182533405521        0.5458855700593706E-02
     4.895710944037861        0.5188221176241303E-02
     4.906239354670200        0.4921416021998818E-02
     4.916767765302540        0.4658883202491066E-02
     4.927296175934879        0.4401070735367582E-02
     4.937824586567219        0.4148422856971687E-02
     4.948352997199557        0.3901372236801342E-02
     4.958881407831897        0.3660333289131263E-02
     4.969409818464237        0.3425696569484325E-02
     4.979938229096576        0.3197824205485778E-02
     4.990466639728916        0.2977046289221668E-02
     5.000995050361255        0.2763658146576599E-02
     5.011523460993595        0.2557918394524969E-02
     5.022051871625934        0.2360047697432833E-02
     5.032580282258274        0.2170228136401021E-02
     5.043108692890613        0.1988603110266878E-02
     5.053637103522953        0.1815277692310013E-02
     5.064165514155293        0.1650319372403887E-02
     5.074693924787631        0.1493759119922773E-02
     5.085222335419971        0.1345592707846459E-02
     5.095750746052310        0.1205782242975988E-02
     5.106279156684650        0.1074257850634346E-02
     5.116807567316989        0.9509194643202152E-03
     5.127335977949329        0.8356386708532440E-03
     5.137864388581669        0.7282605584830174E-03
     5.148392799214008        0.6286055072219865E-03
     5.158921209846348        0.5364708434478093E-03
     5.169449620478687        0.4516322468480129E-03
     5.179978031111027        0.3738447306291015E-03
     5.190506441743366        0.3028428782021716E-03
     5.201034852375705        0.2383397188110071E-03
     5.211563263008045        0.1800229061912000E-03
     5.222091673640384        0.1275449214509803E-03
     5.232620084272724        0.8049774081560784E-04
     5.243148494905063        0.3833548664952058E-04
     5.253676905537403         0.000000000000000    
  0  1  2  0  0.000000   #orbital l, n, z, is_polarized, population
 500    0.7072042251562345E-02     3.528949083529610     # npts, delta, cutoff
     0.000000000000000         2.184957676163057    
    0.7072042251562345E-02     2.184793599883975    
    0.1414408450312469E-01     2.184312706515495    
    0.2121612675468704E-01     2.183508287317340    
    0.2828816900624938E-01     2.182376572522082    
    0.3536021125781173E-01     2.180913417696704    
    0.4243225350937407E-01     2.179115139058025    
    0.4950429576093641E-01     2.176979255678901    
    0.5657633801249876E-01     2.174505009144369    
    0.6364838026406111E-01     2.171693592378938    
    0.7072042251562345E-01     2.168548086938987    
    0.7779246476718579E-01     2.165073165436816    
    0.8486450701874815E-01     2.161274650984025    
    0.9193654927031049E-01     2.157159034493444    
    0.9900859152187283E-01     2.152733036712069    
    0.1060806337734352         2.148003273308907    
    0.1131526760249975         2.142976048126190    
    0.1202247182765599         2.137657270318986    
    0.1272967605281222         2.132052470817194    
    0.1343688027796845         2.126166883964744    
    0.1414408450312469         2.120005559996300    
    0.1485128872828093         2.113573480197426    
    0.1555849295343716         2.106875655759749    
    0.1626569717859339         2.099917200636466    
    0.1697290140374963         2.092703376285105    
    0.1768010562890586         2.085239611266119    
    0.1838730985406210         2.077531501278630    
    0.1909451407921833         2.069584795874194    
    0.1980171830437457         2.061405377484516    