<preamble>

<basis_specs>
===============================================================================
Mn.1                 Z=  25    Mass=  54.938        Charge= 0.17977+309
Lmxo=2 Lmxkb= 2    BasisType=split      Semic=T
L=0  Nsemic=1  Cnfigmx=4
          i=1  nzeta=1  polorb=0  (3s)  (semicore shell)
            splnorm:   0.15000    
               vcte:    40.000    
               rinn:    2.2287    
               qcoe:    0.0000    
               qyuk:    0.0000    
               qwid:   0.10000E-01
                rcs:    2.4764    
            lambdas:    1.0000    
          i=2  nzeta=2  polorb=0  (4s)  (to be polarized non-perturbatively)
            splnorm:   0.15000    
               vcte:    40.000    
               rinn:    5.9593    
               qcoe:    0.0000    
               qyuk:    0.0000    
               qwid:   0.10000E-01
                rcs:    6.6149      4.8296    
            lambdas:    1.0000      1.0000    
L=1  Nsemic=1  Cnfigmx=4
          i=1  nzeta=1  polorb=0  (3p)  (semicore shell)
            splnorm:   0.15000    
               vcte:    40.000    
               rinn:    2.4765    
               qcoe:    0.0000    
               qyuk:    0.0000    
               qwid:   0.10000E-01
                rcs:    2.7489    
            lambdas:    1.0000    
          i=2  nzeta=1  polorb=0  (4p)  (non-perturbative polarization shell)
            splnorm:   0.15000    
               vcte:    40.000    
               rinn:    5.9593    
               qcoe:    0.0000    
               qyuk:    0.0000    
               qwid:   0.10000E-01
                rcs:    6.6149    
            lambdas:    1.0000    
L=2  Nsemic=0  Cnfigmx=3
          i=1  nzeta=2  polorb=0  (3d)
            splnorm:   0.15000    
               vcte:    40.000    
               rinn:    3.8657    
               qcoe:    0.0000    
               qyuk:    0.0000    
               qwid:   0.10000E-01
                rcs:    4.2909      2.7324    
            lambdas:    1.0000      1.0000    
-------------------------------------------------------------------------------
L=0  Nkbl=2  erefs: 0.17977+309 0.17977+309
L=1  Nkbl=2  erefs: 0.17977+309 0.17977+309
L=2  Nkbl=1  erefs: 0.17977+309
===============================================================================
</basis_specs>

<pseudopotential_header>
 Mn pb nrl pcec
 ONCVPSP-3.2017-10-31Hamann's oncvpsp                        
 3s 2.00  r= 1.41/3p 6.00  r= 1.21/3d 5.00  r= 1.61/                    3s:3p:3d:4s:
</pseudopotential_header>
</preamble>
Mn                            # Symbol
Mn.1                          # Label
   25                         # Atomic number
     15.0000000000                             # Valence charge
     54.9380000000        # Mass 
     294.851954589        # Self energy 
   2   7                      # Lmax for basis, no. of nl orbitals 
   2   6                      # Lmax for projectors, no. of nl KB projectors
# PAOs:__________________________
  0  3  1  0  2.000000   #orbital l, n, z, is_polarized, population
 500    0.4962695219661713E-02     2.476384914611195     # npts, delta, cutoff
     0.000000000000000         2.180098209169788    
    0.4962695219661713E-02     2.180026559437700    
    0.9925390439323426E-02     2.179974641183290    
    0.1488808565898514E-01     2.179888102872134    
    0.1985078087864685E-01     2.179766795789873    
    0.2481347609830856E-01     2.179610545504193    
    0.2977617131797028E-01     2.179419134364998    
    0.3473886653763199E-01     2.179192299909284    
    0.3970156175729370E-01     2.178929735429515    
    0.4466425697695542E-01     2.178631091166148    
    0.4962695219661713E-01     2.178295975803055    
    0.5458964741627884E-01     2.177923958164936    
    0.5955234263594056E-01     2.177514569069728    
    0.6451503785560227E-01     2.177067303304995    
    0.6947773307526398E-01     2.176581621702431    
    0.7444042829492570E-01     2.176056953286677    
    0.7940312351458741E-01     2.175492697475357    
    0.8436581873424912E-01     2.174888226308013    
    0.8932851395391084E-01     2.174242886682233    
    0.9429120917357255E-01     2.173556002576147    
    0.9925390439323425E-01     2.172826877237592    
    0.1042165996128960         2.172054795321513    
    0.1091792948325577         2.171239024958739    
    0.1141419900522194         2.170378819740923    
    0.1191046852718811         2.169473420608367    
    0.1240673804915428         2.168522057629366    
    0.1290300757112045         2.167523951661855    
    0.1339927709308663         2.166478315890136    
    0.1389554661505280         2.165384357231744    
    0.1439181613701897         2.164241277611523    
    0.1488808565898514         2.163048275102038    
    0.1538435518095131         2.161804544931440    
    0.1588062470291748         2.160509280361802    
    0.1637689422488365         2.159161673442573    
    0.1687316374684982         2.157760915645318    
    0.1736943326881600         2.156306198387477    
    0.1786570279078217         2.154796713453803    
    0.1836197231274834         2.153231653325386    
    0.1885824183471451         2.151610211426638    
    0.1935451135668068         2.149931582301485    
    0.1985078087864685         2.148194961730255    
    0.2034705040061302         2.146399546798829    
    0.2084331992257920         2.144544535931726    
    0.2133958944454536         2.142629128900564    
    0.2183585896651154         2.140652526818993    
    0.2233212848847771         2.138613932134718    
    0.2282839801044388         2.136512548628415    
    0.2332466753241005         2.134347581428936    
    0.2382093705437622         2.132118237053096    
    0.2431720657634239         2.129823723477551    
    0.2481347609830857         2.127463250249346    
    0.2530974562027474         2.125036028640691    
    0.2580601514224091         2.122541271852546    
    0.2630228466420708         2.119978195270660    
    0.2679855418617325         2.117346016776632    
    0.2729482370813942         2.114643957115771    
    0.2779109323010559         2.111871240322515    
    0.2828736275207177         2.109027094203414    
    0.2878363227403793         2.106110750876838    
    0.2927990179600410         2.103121447367950    
    0.2977617131797028         2.100058426256787    
    0.3027244083993645         2.096920936376712    
    0.3076871036190262         2.093708233560125    
    0.3126497988386879         2.090419581427822    
    0.3176124940583496         2.087054252218088    
    0.3225751892780113         2.083611527651383    
    0.3275378844976731         2.080090699826280    
    0.3325005797173348         2.076491072142190    
    0.3374632749369965         2.072811960244370    
    0.3424259701566582         2.069052692986693    
    0.3473886653763199         2.065212613407720    
    0.3523513605959816         2.061291079715699    
    0.3573140558156433         2.057287466278262    
    0.3622767510353050         2.053201164612717    
    0.3672394462549667         2.049031584373059    
    0.3722021414746285         2.044778154330034    
    0.3771648366942902         2.040440323340768    
    0.3821275319139519         2.036017561304762    
    0.3870902271336136         2.031509360103276    
    0.3920529223532753         2.026915234519354    
    0.3970156175729370         2.022234723136023    
    0.4019783127925988         2.017467389210404    
    0.4069410080122605         2.012612821521707    
    0.4119037032319222         2.007670635191358    
    0.4168663984515839         2.002640472473648    
    0.4218290936712456         1.997522003515552    
    0.4267917888909073         1.992314927084514    
    0.4317544841105690         1.987018971263248    
    0.4367171793302307         1.981633894110646    
    0.4416798745498924         1.976159484288148    
    0.4466425697695542         1.970595561651035    
    0.4516052649892159         1.964941977804184    
    0.4565679602088776         1.959198616621994    
    0.4615306554285393         1.953365394732252    
    0.4664933506482010         1.947442261963852    
    0.4714560458678627         1.941429201758289    
    0.4764187410875245         1.935326231544959    
    0.4813814363071862         1.929133403080374    
    0.4863441315268479         1.922850802751426    
    0.4913068267465096         1.916478551842880    
    0.4962695219661713         1.910016806769362    
    0.5012322171858330         1.903465759272090    
    0.5061949124054947         1.896825636580675    
    0.5111576076251564         1.890096701540325    
    0.5161203028448181         1.883279252704853    
    0.5210829980644799         1.876373624395835    
    0.5260456932841415         1.869380186728387    
    0.5310083885038033         1.862299345604023    
    0.5359710837234650         1.855131542671048    
    0.5409337789431267         1.847877255252979    
    0.5458964741627884         1.840536996245536    
    0.5508591693824502         1.833111313982785    
    0.5558218646021118         1.825600792072968    
    0.5607845598217736         1.818006049204612    
    0.5657472550414353         1.810327738923572    
    0.5707099502610969         1.802566549381640    
    0.5756726454807587         1.794723203193718    
    0.5806353407004204         1.786798467354369    
    0.5855980359200821         1.778793121149006    
    0.5905607311397438         1.770707988184761    
    0.5955234263594056         1.762543924927618    
    0.6004861215790672         1.754301820382304    
    0.6054488167987290         1.745982595661398    
    0.6104115120183907         1.737587203531762    
    0.6153742072380524         1.729116627939043    
    0.6203369024577141         1.720571883510991    
    0.6252995976773759         1.711954015040392    
    0.6302622928970375         1.703264096948343    
    0.6352249881166993         1.694503232728595    
    0.6401876833363610         1.685672554373753    
    0.6451503785560226         1.676773221784021    
    0.6501130737756844         1.667806422159212    
    0.6550757689953461         1.658773369374716    
    0.6600384642150078         1.649675303342157    
    0.6650011594346695         1.640513489355344    
    0.6699638546543313         1.631289217422233    
    0.6749265498739929         1.622003801583508    
    0.6798892450936547         1.612658579218449    
    0.6848519403133164         1.603254910338691    
    0.6898146355329781         1.593794176870480    
    0.6947773307526398         1.584277781926050    
    0.6997400259723016         1.574707149064744    
    0.7047027211919632         1.565083721544419    
    0.7096654164116249         1.555408961563767    
    0.7146281116312867         1.545684349496157    
    0.7195908068509483         1.535911383115566    
    0.7245535020706101         1.526091576815203    
    0.7295161972902718         1.516226460819424    
    0.7344788925099335         1.506317580389535    
    0.7394415877295952         1.496366495024096    
    0.7444042829492570         1.486374777654329    
    0.7493669781689186         1.476344013835232    
    0.7543296733885804         1.466275800933026    
    0.7592923686082421         1.456171747309538    
    0.7642550638279038         1.446033471504148    
    0.7692177590475655         1.435862601413906    
    0.7741804542672273         1.425660773472459    
    0.7791431494868889         1.415429631828380    
    0.7841058447065506         1.405170827523526    
    0.7890685399262124         1.394886017672025    
    0.7940312351458740         1.384576864640524    
    0.7989939303655358         1.374245035230270    
    0.8039566255851975         1.363892199861624    
    0.8089193208048592         1.353520031761601    
    0.8138820160245209         1.343130206155003    
    0.8188447112441827         1.332724399459724    
    0.8238074064638443         1.322304288486771    
    0.8287701016835061         1.311871549645550    
    0.8337327969031678         1.301427858154941    
    0.8386954921228295         1.290974887260700    
    0.8436581873424912         1.280514307459676    
    0.8486208825621530         1.270047785731360    
    0.8535835777818146         1.259576984777213    
    0.8585462730014763         1.249103562268270    
    0.8635089682211381         1.238629170101445    
    0.8684716634407997         1.228155453664984    
    0.8734343586604615         1.217684051113508    
    0.8783970538801232         1.207216592653015    
    0.8833597490997849         1.196754699836255    
    0.8883224443194466         1.186299984868840    
    0.8932851395391084         1.175854049926467    
    0.8982478347587700         1.165418486483585    
    0.9032105299784318         1.154994874653852    
    0.9081732251980935         1.144584782542670    
    0.9131359204177552         1.134189765612122    
    0.9180986156374169         1.123811366058562    
    0.9230613108570787         1.113451112203184    
    0.9280240060767403         1.103110517895768    
    0.9329867012964020         1.092791081931866    
    0.9379493965160638         1.082494287483639    
    0.9429120917357254         1.072221601544569    
    0.9478747869553872         1.061974474388229    
    0.9528374821750489         1.051754339041290    
    0.9578001773947106         1.041562610770933    
    0.9627628726143723         1.031400686586819    
    0.9677255678340340         1.021269944757732    
    0.9726882630536957         1.011171744343042    
    0.9776509582733575         1.001107424739075    
    0.9826136534930191        0.9910783052405043    
    0.9875763487126809        0.9810856846168236    
    0.9925390439323426        0.9711308407039687    
    0.9975017391520042        0.9612150300111583    
     1.002464434371666        0.9513394873429611    
     1.007427129591328        0.9415054254366669    
     1.012389824810989        0.9317140346149118    
     1.017352520030651        0.9219664824535954    
     1.022315215250313        0.9122639134650962    
     1.027277910469975        0.9026074487966946    
     1.032240605689636        0.8929981859442792    
     1.037203300909298        0.8834371984811537    
     1.042165996128960        0.8739255358019776    
     1.047128691348622        0.8644642228817571    
     1.052091386568283        0.8550542600497620    
     1.057054081787945        0.8456966227783790    
     1.062016777007607        0.8363922614866552    
     1.066979472227268        0.8271421013585215    
     1.071942167446930        0.8179470421755669    
     1.076904862666592        0.8088079581641791    
     1.081867557886253        0.7997256978570082    
     1.086830253105915        0.7907010839684898    
     1.091792948325577        0.7817349132843427    
     1.096755643545239        0.7728279565648936    
     1.101718338764900        0.7639809584619829    
     1.106681033984562        0.7551946374493703    
     1.111643729204224        0.7464696857663976    
     1.116606424423885        0.7378067693746901    
     1.121569119643547        0.7292065279277876    
     1.126531814863209        0.7206695747534511    
     1.131494510082871        0.7121964968484421    
     1.136457205302532        0.7037878548856256    
     1.141419900522194        0.6954441832330706    
     1.146382595741856        0.6871659899850316    
     1.151345290961517        0.6789537570045809    
     1.156307986181179        0.6708079399776780    
     1.161270681400841        0.6627289684785049    
     1.166233376620503        0.6547172460455492    
     1.171196071840164        0.6467731502675510    
     1.176158767059826        0.6388970328841557    
     1.181121462279488        0.6310892198910106    
     1.186084157499149        0.6233500116560050    
     1.191046852718811        0.6156796830533918    
     1.196009547938473        0.6080784835974117    
     1.200972243158134        0.6005466375923091    
     1.205934938377796        0.5930843442730662    
     1.210897633597458        0.5856917779897370    
     1.215860328817120        0.5783690883731772    
     1.220823024036781        0.5711164004923457    
     1.225785719256443        0.5639338150504243    
     1.230748414476105        0.5568214085805073    
     1.235711109695766        0.5497792336832584    
     1.240673804915428        0.5428073191991735    
     1.245636500135090        0.5359056704468841    
     1.250599195354752        0.5290742694458520    
     1.255561890574413        0.5223130751760782    
     1.260524585794075        0.5156220238136160    
     1.265487281013737        0.5090010289809873    
     1.270449976233399        0.5024499820076086    
     1.275412671453060        0.4959687521948593    
     1.280375366672722        0.4895571870876063    
     1.285338061892384        0.4832151127512679    
     1.290300757112045        0.4769423340550868    
     1.295263452331707        0.4707386349609190    
     1.300226147551369        0.4646037788175413    
     1.305188842771031        0.4585375086601938    
     1.310151537990692        0.4525395475152186    
     1.315114233210354        0.4466095987097292    
     1.320076928430016        0.4407473461859950    
     1.325039623649677        0.4349524548204435    
     1.330002318869339        0.4292245707471463    
     1.334965014089001        0.4235633216855949    
     1.339927709308663        0.4179683172725667    
     1.344890404528324        0.4124391493980337    
     1.349853099747986        0.4069753925448816    
     1.354815794967648        0.4015766041323141    
     1.359778490187309        0.3962423248627304    
     1.364741185406971        0.3909720790704154    
     1.369703880626633        0.3857653750042820    
     1.374666575846294        0.3806217052143159    
     1.379629271065956        0.3755405471002891    
     1.384591966285618        0.3705213634435272    
     1.389554661505280        0.3655636028689827    
     1.394517356724941        0.3606666992342672    
     1.399480051944603        0.3558300714605222    
     1.404442747164265        0.3510531236935224    
     1.409405442383926        0.3463352473621242    
     1.414368137603588        0.3416758241616618    
     1.419330832823250        0.3370742291862254    
     1.424293528042912        0.3325298342165650    
     1.429256223262573        0.3280420108767029    
     1.434218918482235        0.3236101334026652    
     1.439181613701897        0.3192335809255729    
     1.444144308921558        0.3149117375920570    
     1.449107004141220        0.3106439922044137    
     1.454069699360882        0.3064297374059513    
     1.459032394580544        0.3022683693958306    
     1.463995089800205        0.2981592882859880    
     1.468957785019867        0.2941018982677809    
     1.473920480239529        0.2900956078485336    
     1.478883175459190        0.2861398298375454    
     1.483845870678852        0.2822339813709187    
     1.488808565898514        0.2783774839591568    
     1.493771261118175        0.2745697635317160    
     1.498733956337837        0.2708102504793551    
     1.503696651557499        0.2670983796916362    
     1.508659346777161        0.2634335905915917    
     1.513622041996822        0.2598153271664460    
     1.518584737216484        0.2562430379955118    
     1.523547432436146        0.2527161762749989    
     1.528510127655808        0.2492341998398642    
     1.533472822875469        0.2457965711827667    
     1.538435518095131        0.2424027574703172    
     1.543398213314793        0.2390522305566717    
     1.548360908534455        0.2357444669947669    
     1.553323603754116        0.2324789480452648    
     1.558286298973778        0.2292551596845379    
     1.563248994193440        0.2260725926033051    
     1.568211689413101        0.2229307422136823    
     1.573174384632763        0.2198291086490657    
     1.578137079852425        0.2167671967635019    
     1.583099775072086        0.2137445161203241    
     1.588062470291748        0.2107605809933896    
     1.593025165511410        0.2078149103537059    
     1.597987860731072        0.2049070278638210    
     1.602950555950733        0.2020364618850892    
     1.607913251170395        0.1992027454384016    
     1.612875946390057        0.1964054161921414    
     1.617838641609718        0.1936440164619266    
     1.622801336829380        0.1909180932026560    
     1.627764032049042        0.1882271979741268    
     1.632726727268704        0.1855708869624346    
     1.637689422488365        0.1829487208882541    
     1.642652117708027        0.1803602650074693    
     1.647614812927689        0.1778050891273334    
     1.652577508147350        0.1752827675443459    
     1.657540203367012        0.1727928790644678    
     1.662502898586674        0.1703350069547656    
     1.667465593806336        0.1679087389044668    
     1.672428289025997        0.1655136670088753    
     1.677390984245659        0.1631493877428169    
     1.682353679465321        0.1608155019338141    
     1.687316374684982        0.1585116147334489    
     1.692279069904644        0.1562373355880363    
     1.697241765124306        0.1539922782093735    
     1.702204460343967        0.1517760605446295    
     1.707167155563629        0.1495883047458366    
     1.712129850783291        0.1474286371390980    
     1.717092546002953        0.1452966881932405    
     1.722055241222614        0.1431920924881273    
     1.727017936442276        0.1411144886826383    
     1.731980631661938        0.1390635194822833    
     1.736943326881599        0.1370388316064906    
     1.741906022101261        0.1350400757556122    
     1.746868717320923        0.1330669065777817    
     1.751831412540585        0.1311189826354572    
     1.756794107760246        0.1291959663717942    
     1.761756802979908        0.1272975240767419    
     1.766719498199570        0.1254233258531594    
     1.771682193419231        0.1235730455826729    
     1.776644888638893        0.1217463608914586    
     1.781607583858555        0.1199429531158238    
     1.786570279078217        0.1181625072678698    
     1.791532974297878        0.1164047120009872    
     1.796495669517540        0.1146692595753398    
     1.801458364737202        0.1129558458232508    
     1.806421059956864        0.1112641701146487    
     1.811383755176525        0.1095939353224885    
     1.816346450396187        0.1079448477881721    
     1.821309145615849        0.1063166172869875    
     1.826271840835510        0.1047089569935726    
     1.831234536055172        0.1031215834474688    
     1.836197231274834        0.1015542165186973    
     1.841159926494496        0.1000065793734145    
     1.846122621714157        0.9847839843963561E-01
     1.851085316933819        0.9696940337306381E-01
     1.856048012153481        0.9547932702300556E-01
     1.861010707373142        0.9400790539839170E-01
     1.865973402592804        0.9255487763392539E-01
     1.870936097812466        0.9111998595634133E-01
     1.875898793032128        0.8970297565078793E-01
     1.880861488251789        0.8830359502735702E-01
     1.885824183471451        0.8692159538774190E-01
     1.890786878691113        0.8555673099210299E-01
     1.895749573910774        0.8420875902599698E-01
     1.900712269130436        0.8287743956752454E-01
     1.905674964350098        0.8156253555462274E-01
     1.910637659569759        0.8026381275256479E-01
     1.915600354789421        0.7898103972161565E-01
     1.920563050009083        0.7771398778483081E-01
     1.925525745228745        0.7646243099608355E-01
     1.930488440448406        0.7522614610824696E-01
     1.935451135668068        0.7400491254166940E-01
     1.940413830887730        0.7279851235269567E-01
     1.945376526107391        0.7160673020247400E-01
     1.950339221327053        0.7042935332594495E-01
     1.955301916546715        0.6926617150103746E-01
     1.960264611766377        0.6811697701813975E-01
     1.965227306986038        0.6698156464963614E-01
     1.970190002205700        0.6585973161976266E-01
     1.975152697425362        0.6475127757463374E-01
     1.980115392645023        0.6365600455253773E-01
     1.985078087864685        0.6257371695441387E-01
     1.990040783084347        0.6150422151451276E-01
     1.995003478304008        0.6044732727132735E-01
     1.999966173523670        0.5940284553871156E-01
     2.004928868743332        0.5837058987730153E-01
     2.009891563962994        0.5735037606605765E-01
     2.014854259182655        0.5634202207407076E-01
     2.019816954402317        0.5534534803260269E-01
     2.024779649621979        0.5436017620733041E-01
     2.029742344841641        0.5338633097088780E-01
     2.034705040061302        0.5242363877552693E-01
     2.039667735280964        0.5147192812606884E-01
     2.044630430500626        0.5053102955306756E-01
     2.049593125720287        0.4960077558619388E-01
     2.054555820939949        0.4868100072789114E-01
     2.059518516159611        0.4777154142718053E-01
     2.064481211379273        0.4687223605374074E-01
     2.069443906598934        0.4598292487220255E-01
     2.074406601818596        0.4510345001666312E-01
     2.079369297038258        0.4423365546544811E-01
     2.084331992257920        0.4337338701605751E-01
     2.089294687477581        0.4252249226036149E-01
     2.094257382697243        0.4168082056000894E-01
     2.099220077916904        0.4084822302205948E-01
     2.104182773136566        0.4002455247483532E-01
     2.109145468356228        0.3920966344398939E-01
     2.114108163575890        0.3840341212879302E-01
     2.119070858795551        0.3760565637863981E-01
     2.124033554015213        0.3681625566976875E-01
     2.128996249234875        0.3603507108218477E-01
     2.133958944454537        0.3526196527681819E-01
     2.138921639674198        0.3449680247287942E-01
     2.143884334893860        0.3373944842542719E-01
     2.148847030113522        0.3298977040315196E-01
     2.153809725333184        0.3224763716634242E-01
     2.158772420552845        0.3151291894509403E-01
     2.163735115772507        0.3078548741770090E-01
     2.168697810992168        0.3006521568925627E-01
     2.173660506211830        0.2935197827045759E-01
     2.178623201431492        0.2864565105659352E-01
     2.183585896651154        0.2794611130675380E-01
     2.188548591870815        0.2725323762322950E-01
     2.193511287090477        0.2656690993110389E-01
     2.198473982310139        0.2588700945804224E-01
     2.203436677529801        0.2521341871426724E-01
     2.208399372749462        0.2454602147272589E-01
     2.213362067969124        0.2388470274945806E-01
     2.218324763188785        0.2322934878413960E-01
     2.223287458408447        0.2257984702081622E-01
     2.228250153628109        0.2193608608881449E-01
     2.233212848847771        0.2129795578382516E-01
     2.238175544067432        0.2066534704921845E-01
     2.243138239287094        0.2003815195758742E-01
     2.248100934506756        0.1941626370704145E-01
     2.253063629726418        0.1879957698587423E-01
     2.258026324946079        0.1818799075935839E-01
     2.262989020165741        0.1758141699336631E-01
     2.267951715385403        0.1697979576319442E-01
     2.272914410605065        0.1638311263614131E-01
     2.277877105824726        0.1579141331583601E-01
     2.282839801044388        0.1520481261202842E-01
     2.287802496264050        0.1462349717938247E-01
     2.292765191483711        0.1404772292639934E-01
     2.297727886703373        0.1347780855834270E-01
     2.302690581923035        0.1291412669768067E-01
     2.307653277142697        0.1235709378328489E-01
     2.312615972362358        0.1180715962836848E-01
     2.317578667582020        0.1126479726201449E-01
     2.322541362801682        0.1073049342156985E-01
     2.327504058021344        0.1020473991836361E-01
     2.332466753241005        0.9688025975697526E-02
     2.337429448460667        0.9180831560742841E-02
     2.342392143680328        0.8683621683276615E-02
     2.347354838899990        0.8196841599989334E-02
     2.352317534119652        0.7720912854952551E-02
     2.357280229339314        0.7256230072951219E-02
     2.362242924558975        0.6803158422270982E-02
     2.367205619778637        0.6362031675596094E-02
     2.372168314998299        0.5933150778204143E-02
     2.377131010217961        0.5516782862588198E-02
     2.382093705437622        0.5113160644364329E-02
     2.387056400657284        0.4722482134681087E-02
     2.392019095876946        0.4344910613077984E-02
     2.396981791096607        0.3980574806285150E-02
     2.401944486316269        0.3629569219169465E-02
     2.406907181535931        0.3291954562683848E-02
     2.411869876755592        0.2967758218199741E-02
     2.416832571975254        0.2656974666482754E-02
     2.421795267194916        0.2359565789031974E-02
     2.426757962414578        0.2075460912774896E-02
     2.431720657634239        0.1804556403042675E-02
     2.436683352853901        0.1546714487586107E-02
     2.441646048073563        0.1301760758284011E-02
     2.446608743293225        0.1069479311339189E-02
     2.451571438512886        0.8496034021316769E-03
     2.456534133732548        0.6417967934698495E-03
     2.461496828952209        0.4456131933940628E-03
     2.466459524171871        0.2603931612671044E-03
     2.471422219391533        0.8490481649137192E-04
     2.476384914611195         0.000000000000000    
  0  4  1  0  2.000000   #orbital l, n, z, is_polarized, population
 500    0.1325624009133255E-01     6.614863805574942     # npts, delta, cutoff
     0.000000000000000         1.049491654246750    
    0.1325624009133255E-01     1.049225830569994    
    0.2651248018266510E-01     1.048506560103460    