Executable      : siesta
Version         : 5.2.0-12-gaf738a07d
Architecture    : x86_64
Compiler version: GNU-13.2.0
Compiler flags  : -fallow-argument-mismatch -O3 -march=native
Parallelisations: MPI
Native ELPA support
ELSI support. Solvers:
   ELPA (internal) 
   NTPoly
   OMM
DFT-D3 support

Runtime information:
* Directory : /media/hakan/New Volume1/dftLiteratur/malzemeML/mxene_project/results/dft/stability
* Running in serial mode (only 1 MPI rank).
>> Start of run:  20-JAN-2025   5:33:06

                           *********************** 
                           *  WELCOME TO SIESTA  * 
                           *********************** 

 NOTE: Siesta V5 introduces some new defaults for basis-set generation
 NOTE: which might lead to slightly different numerical results.
 NOTE: Please see the manual for full details and compatibility measures.


reinit: Reading from standard input
reinit: Dumping input in INPUT_TMP.58690
************************** Dump of input data file ****************************
SystemName	Mn2CTx
SystemLabel	Mn2CTx
DM.InitialSpinPol	0.2
DM.MixingWeight	0.1
DM.NumberPulay	5
DM.Tolerance	1.0E-4
DM.UseSaveDM	True
ElectronicTemperature	300 K
MD.ConstantVolume	False
MD.MaxForceTol	0.04 eV/Ang
MD.MaxStressTol	1.0 GPa
MD.NumCGsteps	100
MD.TypeOfRun	CG
MD.VariableCell	True
MaxSCFIterations	200
PAO.BasisSize	DZP
PAO.EnergyShift	0.01 Ry
PAO.SoftDefault	True
PAO.SplitNorm	0.15
SCF.DM.Tolerance	1.0E-4
SCF.EDM.Tolerance	1.0E-4 eV
SCF.H.Tolerance	1.0E-4 eV
SaveDeltaRho	True
SaveElectrostaticPotential	True
SaveRho	True
SolutionMethod	diagon
WriteDenchar	True
WriteEigenvalues	True
XC.functional	GGA
XML.Write	True
SCFMustConverge	True
Spin	polarized
XC.functional	GGA
XC.authors	PW91
MeshCutoff	2040.8539518275434	eV
PAO.EnergyShift	0.01	eV
NumberOfSpecies	4
NumberOfAtoms	7
%block ChemicalSpecieslabel
    1 25 Mn.1 Mn.1.psml
    2 6 C.2 C.2.psml
    3 8 O.3 O.3.psml
    4 1 H.4 H.4.psml
%endblock ChemicalSpecieslabel
%block PAO.BasisSizes
    Mn.1	DZP
    C.2	DZP
    O.3	DZP
    H.4	DZP
%endblock PAO.BasisSizes
LatticeConstant	1.0 Ang
%block LatticeVectors
    3.2 0.0 0.0
    -1.6 2.7712812921102037 0.0
    0.0 0.0 25.0
%endblock LatticeVectors
AtomicCoordinatesFormat	Ang
%block AtomicCoordinatesAndAtomicSpecies
    -1.480297366166875e-17 1.8475208614068024 10.0 1
    1.5999999999999999 0.9237604307034012 11.25 1
    0.0 0.0 12.5 2
    -1.480297366166875e-17 1.8475208614068024 13.750000000000002 3
    1.5999999999999999 0.9237604307034012 8.75 3
    -1.480297366166875e-17 1.8475208614068024 15.0 4
    1.5999999999999999 0.9237604307034012 7.5 4
%endblock AtomicCoordinatesAndAtomicSpecies
%block DM.InitSpin
%endblock DM.InitSpin
#KPoint grid
%block kgrid_Monkhorst_Pack
     6       0       0  0.0
     0       6       0  0.0
     0       0       1  0.0
%endblock kgrid_Monkhorst_Pack
************************** End of input data file *****************************
*** WARNING:  FDF module: fdf_read: block DM.InitSpin is empty...

reinit: -----------------------------------------------------------------------
reinit: System Name: Mn2CTx
reinit: -----------------------------------------------------------------------
reinit: System Label: Mn2CTx
reinit: -----------------------------------------------------------------------

NOTE on units for spin output: 
{S} is the spin magnetic moment, in units of the Bohr magneton,
assuming a g-factor for the electron spin of exactly 2.
The spin magnetic moment is then numerically equal to the charge inbalance,
in units of electrons, between the spin-up and -down channels.


initatom: Reading input for the pseudopotentials and atomic orbitals ----------
Species number:   1 Atomic number:   25 Label: Mn.1
Species number:   2 Atomic number:    6 Label: C.2
Species number:   3 Atomic number:    8 Label: O.3
Species number:   4 Atomic number:    1 Label: H.4

Ground state valence configuration (from tables):   4s02  4p00  3d05  4f00
Ground state valence configuration (from tables):   2s02  2p02  3d00  4f00
Ground state valence configuration (from tables):   2s02  2p04  3d00  4f00
Ground state valence configuration (from tables):   1s01  2p00  3d00  4f00

---- Processing specs for species: Mn.1
Reading pseudopotential information in PSML from:
  Mn.1.psml
PSML file version: 1.1
Using libxc ids:  101 130
GGA--PBE XC_GGA_X_PBE--XC_GGA_C_PBE pb
PSML uuid: e5ebd880-be41-11e7-659b-074ddfc7bd15
Semicore shell(s) with  8 electrons included in the valence for Mn.1

---- Processing specs for species: C.2
Reading pseudopotential information in PSML from:
  C.2.psml
PSML file version: 1.1
Using libxc ids:  101 130
GGA--PBE XC_GGA_X_PBE--XC_GGA_C_PBE pb
PSML uuid: 297821e0-be41-11e7-6802-e1ff7dfff095

---- Processing specs for species: O.3
Reading pseudopotential information in PSML from:
  O.3.psml
PSML file version: 1.1
Using libxc ids:  101 130
GGA--PBE XC_GGA_X_PBE--XC_GGA_C_PBE pb
PSML uuid: 3cff85a0-be41-11e7-6c5c-1b1fe64d18ef

---- Processing specs for species: H.4
Reading pseudopotential information in PSML from:
  H.4.psml
PSML file version: 1.1
Using libxc ids:  101 130
GGA--PBE XC_GGA_X_PBE--XC_GGA_C_PBE pb
PSML uuid: f95fa9b0-be40-11e7-634a-9594ffff953f
resizes: Read basis size for species Mn.1 = dzp                 
resizes: Read basis size for species C.2 = dzp                 
resizes: Read basis size for species O.3 = dzp                 
resizes: Read basis size for species H.4 = dzp                 

---- Pseudopotential check for Mn

Pseudized shells:
3s( 2.00) rc: 1.41
3p( 6.00) rc: 1.21
3d( 5.00) rc: 1.61
Valence configuration for ps generation: 3s:3p:3d:4s: Total charge:  15.000000
Semicore shell(s): 3s 3p
Fallback to non-perturbative polarization scheme for Mn.1
Please see the manual if this is not desired in principle

---- Pseudopotential check for C 

Pseudized shells:
2s( 2.00) rc: 1.20
2p( 2.00) rc: 1.26
Valence configuration for ps generation: 2s:2p: Total charge:   4.000000

---- Pseudopotential check for O 

Pseudized shells:
2s( 2.00) rc: 1.36
2p( 4.00) rc: 1.46
3d( 0.00) rc: 1.26
Valence configuration for ps generation: 2s:2p: Total charge:   6.000000

---- Pseudopotential check for H 

Pseudized shells:
1s( 1.00) rc: 1.01
2p( 0.00) rc: 0.71
Valence configuration for ps generation: 1s: Total charge:   1.000000
For Mn.1, standard SIESTA heuristics set lmxkb to 3
 (one more than the basis l, including polarization orbitals).
Use PS.lmax or PS.KBprojectors blocks to override.
For C.2, standard SIESTA heuristics set lmxkb to 3
 (one more than the basis l, including polarization orbitals).
Use PS.lmax or PS.KBprojectors blocks to override.
For O.3, standard SIESTA heuristics set lmxkb to 3
 (one more than the basis l, including polarization orbitals).
Use PS.lmax or PS.KBprojectors blocks to override.
For H.4, standard SIESTA heuristics set lmxkb to 2
 (one more than the basis l, including polarization orbitals).
Use PS.lmax or PS.KBprojectors blocks to override.
Mn.1.psml pseudopotential only contains V_ls up to l=2 -- lmxkb reset.
C.2.psml pseudopotential only contains V_ls up to l=1 -- lmxkb reset.
O.3.psml pseudopotential only contains V_ls up to l=2 -- lmxkb reset.
H.4.psml pseudopotential only contains V_ls up to l=1 -- lmxkb reset.

<basis_specs>
===============================================================================
Mn.1                 Z=  25    Mass=  54.938        Charge= 0.17977+309
Lmxo=2 Lmxkb= 2    BasisType=split      Semic=T
L=0  Nsemic=1  Cnfigmx=4
          i=1  nzeta=1  polorb=0  (3s)  (semicore shell)
            splnorm:   0.15000    
               vcte:    40.000    
               rinn:  -0.90000    
               qcoe:    0.0000    
               qyuk:    0.0000    
               qwid:   0.10000E-01
                rcs:    0.0000    
            lambdas:    1.0000    
          i=2  nzeta=2  polorb=0  (4s)  (to be polarized non-perturbatively)
            splnorm:   0.15000    
               vcte:    40.000    
               rinn:  -0.90000    
               qcoe:    0.0000    
               qyuk:    0.0000    
               qwid:   0.10000E-01
                rcs:    0.0000      0.0000    
            lambdas:    1.0000      1.0000    
L=1  Nsemic=1  Cnfigmx=4
          i=1  nzeta=1  polorb=0  (3p)  (semicore shell)
            splnorm:   0.15000    
               vcte:    40.000    
               rinn:  -0.90000    
               qcoe:    0.0000    
               qyuk:    0.0000    
               qwid:   0.10000E-01
                rcs:    0.0000    
            lambdas:    1.0000    
          i=2  nzeta=1  polorb=0  (4p)  (non-perturbative polarization shell)
            splnorm:   0.15000    
               vcte:    40.000    
               rinn:  -0.90000    
               qcoe:    0.0000    
               qyuk:    0.0000    
               qwid:   0.10000E-01
                rcs:    0.0000    
            lambdas:    1.0000    
L=2  Nsemic=0  Cnfigmx=3
          i=1  nzeta=2  polorb=0  (3d)
            splnorm:   0.15000    
               vcte:    40.000    
               rinn:  -0.90000    
               qcoe:    0.0000    
               qyuk:    0.0000    
               qwid:   0.10000E-01
                rcs:    0.0000      0.0000    
            lambdas:    1.0000      1.0000    
-------------------------------------------------------------------------------
L=0  Nkbl=2  erefs: 0.17977+309 0.17977+309
L=1  Nkbl=2  erefs: 0.17977+309 0.17977+309
L=2  Nkbl=1  erefs: 0.17977+309
===============================================================================
</basis_specs>

Using PAO.SplitTailNorm
atom: Called for Mn.1                  (Z =  25)
Maximum radius (at nrval) set to   50.00000 8518

read_vps: Pseudopotential generation method:
read_vps: ONCVPSP-3.Hamann's oncvpsp                        
Valence charge in pseudo generation:   15.00000

read_vps: Pseudopotential includes a core correction:
read_vps: Pseudo-core for xc-correction

xc_check: Exchange-correlation functional:
xc_check: GGA Perdew-Wang 1991
xc_check: WARNING: Pseudopotential generated with GGA PBE functional
Got Vlocal (oncv-fit) from psml data
Choosing vlocal chloc cutoff:  3.504263
qtot up to nchloc:   15.00032895
atom: Maximum radius for chlocal:    3.50426
atom: Maximum radius for r*vlocal+2*Zval:    3.50426
Reading KB projs from Mn.1 psml data
Using scalar-relativistic projectors in PSML file

PSML: Kleinman-Bylander projectors: 
   l= 0   rc=  1.427391   Ekb= 18.471374
   l= 0   rc=  1.430269   Ekb=  3.121111
   l= 1   rc=  1.224702   Ekb=  3.156115
   l= 1   rc=  1.224702   Ekb= -1.424352
   l= 2   rc=  1.630219   Ekb=-13.224142
   l= 2   rc=  1.630219   Ekb= -4.330632

PSML: Total number of  Kleinman-Bylander projectors:  18
atom: -------------------------------------------------------------------------

atom: SANKEY-TYPE ORBITALS:
atom: Selected multiple-zeta basis: split     

SPLIT: Orbitals with angular momentum L= 0

SPLIT: Basis orbitals for state 3s

SPLIT: PAO cut-off radius determined from an
SPLIT: energy shift=  0.010000 Ry
Split based on tail norm

   izeta = 1
                 lambda =    1.000000
                     rc =    2.476385
                 energy =   -6.308448
                kinetic =    2.913204
    potential(screened) =   -9.221652
       potential(ionic) =  -33.651216

SPLIT: Basis orbitals for state 4s

SPLIT: PAO cut-off radius determined from an
SPLIT: energy shift=  0.010000 Ry
Split based on tail norm

   izeta = 1
                 lambda =    1.000000
                     rc =    6.614864
                 energy =   -0.444103
                kinetic =    1.217674
    potential(screened) =   -1.661776
       potential(ionic) =  -13.663725

   izeta = 2
                 rmatch =    4.829589
              splitnorm =    0.150000
                 energy =   -0.286694
                kinetic =    2.270086
    potential(screened) =   -2.556780
       potential(ionic) =  -17.117436

SPLIT: Orbitals with angular momentum L= 1

SPLIT: Basis orbitals for state 3p

SPLIT: PAO cut-off radius determined from an
SPLIT: energy shift=  0.010000 Ry
Split based on tail norm

   izeta = 1
                 lambda =    1.000000
                     rc =    2.748894
                 energy =   -4.007606
                kinetic =    7.096061
    potential(screened) =  -11.103667
       potential(ionic) =  -34.773963

SPLIT: Basis orbitals for state 4p
SPLIT: Non-perturbative polarization orbs for state 4s
SPLIT: rc(1st zeta) (re)set to: 6.6149 (expansion factor: 1.0000)
Split based on tail norm

   izeta = 1
                 lambda =    1.000000
                     rc =    6.614864
                 energy =   -0.027487
                kinetic =    1.089885
    potential(screened) =   -1.117373
       potential(ionic) =  -10.753771

SPLIT: Orbitals with angular momentum L= 2

SPLIT: Basis orbitals for state 3d

SPLIT: PAO cut-off radius determined from an
SPLIT: energy shift=  0.010000 Ry
Split based on tail norm

   izeta = 1
                 lambda =    1.000000
                     rc =    4.290924
                 energy =   -0.492659
                kinetic =    9.637872
    potential(screened) =  -10.130532
       potential(ionic) =  -31.101659

   izeta = 2
                 rmatch =    2.732390
              splitnorm =    0.150000
                 energy =   -0.333711
                kinetic =   11.919152
    potential(screened) =  -12.252862
       potential(ionic) =  -34.920847
atom: Total number of Sankey-type orbitals: 19

atm_pop: Valence configuration (for local Pseudopot. screening):
 3s( 2.00) 4s( 2.00)                                                  
 3p( 6.00) 4p( 0.00)                                                  
 3d( 5.00)                                                            
Vna: chval, zval:   15.00000  15.00000

Vna:  Cut-off radius for the neutral-atom potential:   6.614864
comcore: Pseudo-core radius Rcore=  2.115123

atom: _________________________________________________________________________

<basis_specs>
===============================================================================
C.2                  Z=   6    Mass=  12.011        Charge= 0.17977+309
Lmxo=2 Lmxkb= 1    BasisType=split      Semic=F
L=0  Nsemic=0  Cnfigmx=2
          i=1  nzeta=2  polorb=0  (2s)
            splnorm:   0.15000    
               vcte:    40.000    
               rinn:  -0.90000    
               qcoe:    0.0000    
               qyuk:    0.0000    
               qwid:   0.10000E-01
                rcs:    0.0000      0.0000    
            lambdas:    1.0000      1.0000    
L=1  Nsemic=0  Cnfigmx=2
          i=1  nzeta=2  polorb=1  (2p)  (to be polarized perturbatively)
            splnorm:   0.15000    
               vcte:    40.000    
               rinn:  -0.90000    
               qcoe:    0.0000    
               qyuk:    0.0000    
               qwid:   0.10000E-01
                rcs:    0.0000      0.0000    
            lambdas:    1.0000      1.0000    
L=2  Nsemic=0  Cnfigmx=3
          i=1  nzeta=0  polorb=0  (3d)  (perturbative polarization orbital) (from 2p)
-------------------------------------------------------------------------------
L=0  Nkbl=1  erefs: 0.17977+309
L=1  Nkbl=1  erefs: 0.17977+309
===============================================================================
</basis_specs>

Using PAO.SplitTailNorm
atom: Called for C.2                   (Z =   6)
NOTE: C.2 pseudopotential has channels up to l= 1
NOTE: PAOs with higher l will be generated with V_local
Maximum radius (at nrval) set to   50.00000 8518

read_vps: Pseudopotential generation method:
read_vps: ONCVPSP-3.Hamann's oncvpsp                        
Valence charge in pseudo generation:    4.00000

read_vps: Pseudopotential includes a core correction:
read_vps: Pseudo-core for xc-correction

xc_check: Exchange-correlation functional:
xc_check: GGA Perdew-Wang 1991
xc_check: WARNING: Pseudopotential generated with GGA PBE functional
Got Vlocal (oncv-fit) from psml data
Choosing vlocal chloc cutoff:  4.122282
qtot up to nchloc:    4.00001153
atom: Maximum radius for chlocal:    4.12228
atom: Maximum radius for r*vlocal+2*Zval:    4.12228
Reading KB projs from C.2 psml data
Using scalar-relativistic projectors in PSML file

PSML: Kleinman-Bylander projectors: 
   l= 0   rc=  1.219773   Ekb= 12.963096
   l= 0   rc=  1.219773   Ekb=  0.771007
   l= 1   rc=  1.278952   Ekb= -8.399923
   l= 1   rc=  1.278952   Ekb= -1.755033

PSML: Total number of  Kleinman-Bylander projectors:   8
atom: -------------------------------------------------------------------------

atom: SANKEY-TYPE ORBITALS:
atom: Selected multiple-zeta basis: split     

SPLIT: Orbitals with angular momentum L= 0

SPLIT: Basis orbitals for state 2s

SPLIT: PAO cut-off radius determined from an
SPLIT: energy shift=  0.010000 Ry
Split based on tail norm

   izeta = 1
                 lambda =    1.000000
                     rc =    4.475410
                 energy =   -1.003447
                kinetic =    0.961175
    potential(screened) =   -1.964622
       potential(ionic) =   -5.523305

   izeta = 2
                 rmatch =    3.042100
              splitnorm =    0.150000
                 energy =   -0.708481
                kinetic =    1.797647
    potential(screened) =   -2.506128
       potential(ionic) =   -6.357721

SPLIT: Orbitals with angular momentum L= 1

SPLIT: Basis orbitals for state 2p

SPLIT: PAO cut-off radius determined from an
SPLIT: energy shift=  0.010000 Ry
Split based on tail norm

   izeta = 1
                 lambda =    1.000000
                     rc =    5.457546
                 energy =   -0.381692
                kinetic =    2.519163
    potential(screened) =   -2.900854
       potential(ionic) =   -6.331131

   izeta = 2
                 rmatch =    3.691839
              splitnorm =    0.150000
                 energy =   -0.253500
                kinetic =    3.655124
    potential(screened) =   -3.908625
       potential(ionic) =   -7.668925
*Note: V_local used for l= 2

** Using vlocal for PAOs with L= 2

POLgen: Perturbative polarization orbital with L=  2

POLgen: Polarization orbital for state 2p
*Note: V_local used for lpol= 2

** Using vlocal for PAOs with L= 2
Split based on tail norm

   izeta = 1
                     rc =    5.457546
                 energy =    1.176775
                kinetic =    2.317287
    potential(screened) =   -1.140512
       potential(ionic) =   -3.995724
atom: Total number of Sankey-type orbitals: 13

atm_pop: Valence configuration (for local Pseudopot. screening):
 2s( 2.00)                                                            
 2p( 2.00)                                                            
 3d( 0.00)                                                            
Vna: chval, zval:    4.00000   4.00000

Vna:  Cut-off radius for the neutral-atom potential:   5.457546
comcore: Pseudo-core radius Rcore=  1.671741

atom: _________________________________________________________________________

<basis_specs>
===============================================================================
O.3                  Z=   8    Mass=  15.999        Charge= 0.17977+309
Lmxo=2 Lmxkb= 2    BasisType=split      Semic=F
L=0  Nsemic=0  Cnfigmx=2
          i=1  nzeta=2  polorb=0  (2s)
            splnorm:   0.15000    
               vcte:    40.000    
               rinn:  -0.90000    
               qcoe:    0.0000    
               qyuk:    0.0000    
               qwid:   0.10000E-01
                rcs:    0.0000      0.0000    
            lambdas:    1.0000      1.0000    
L=1  Nsemic=0  Cnfigmx=2
          i=1  nzeta=2  polorb=1  (2p)  (to be polarized perturbatively)
            splnorm:   0.15000    
               vcte:    40.000    
               rinn:  -0.90000    
               qcoe:    0.0000    
               qyuk:    0.0000    
               qwid:   0.10000E-01
                rcs:    0.0000      0.0000    
            lambdas:    1.0000      1.0000    
L=2  Nsemic=0  Cnfigmx=3
          i=1  nzeta=0  polorb=0  (3d)  (perturbative polarization orbital) (from 2p)
-------------------------------------------------------------------------------
L=0  Nkbl=1  erefs: 0.17977+309
L=1  Nkbl=1  erefs: 0.17977+309
L=2  Nkbl=1  erefs: 0.17977+309
===============================================================================
</basis_specs>

Using PAO.SplitTailNorm
atom: Called for O.3                   (Z =   8)
Maximum radius (at nrval) set to   50.00000 8518

read_vps: Pseudopotential generation method:
read_vps: ONCVPSP-3.Hamann's oncvpsp                        
Valence charge in pseudo generation:    6.00000

read_vps: Pseudopotential includes a core correction:
read_vps: Pseudo-core for xc-correction

xc_check: Exchange-correlation functional:
xc_check: GGA Perdew-Wang 1991
xc_check: WARNING: Pseudopotential generated with GGA PBE functional
Got Vlocal (oncv-fit) from psml data
Choosing vlocal chloc cutoff:  6.020499
qtot up to nchloc:    6.00001015
atom: Maximum radius for chlocal:    6.02050
atom: Maximum radius for r*vlocal+2*Zval:    6.02050
Reading KB projs from O.3 psml data
Using scalar-relativistic projectors in PSML file

PSML: Kleinman-Bylander projectors: 
   l= 0   rc=  1.372412   Ekb= 12.113471
   l= 0   rc=  1.372412   Ekb=  1.648048
   l= 1   rc=  1.474132   Ekb= -9.434259
   l= 1   rc=  1.474132   Ekb= -2.298541
   l= 2   rc=  1.277664   Ekb= -2.663910

PSML: Total number of  Kleinman-Bylander projectors:  13
atom: -------------------------------------------------------------------------

atom: SANKEY-TYPE ORBITALS:
atom: Selected multiple-zeta basis: split     

SPLIT: Orbitals with angular momentum L= 0

SPLIT: Basis orbitals for state 2s

SPLIT: PAO cut-off radius determined from an
SPLIT: energy shift=  0.010000 Ry
Split based on tail norm

   izeta = 1
                 lambda =    1.000000
                     rc =    3.532490
                 energy =   -1.756259
                kinetic =    1.592828
    potential(screened) =   -3.349087
       potential(ionic) =  -11.246957

   izeta = 2
                 rmatch =    2.296727
              splitnorm =    0.150000
                 energy =   -1.342857
                kinetic =    2.721466
    potential(screened) =   -4.064323
       potential(ionic) =  -12.672774

SPLIT: Orbitals with angular momentum L= 1

SPLIT: Basis orbitals for state 2p

SPLIT: PAO cut-off radius determined from an
SPLIT: energy shift=  0.010000 Ry
Split based on tail norm

   izeta = 1
                 lambda =    1.000000
                     rc =    4.308162
                 energy =   -0.658624
                kinetic =    4.630660
    potential(screened) =   -5.289284
       potential(ionic) =  -12.930979

   izeta = 2
                 rmatch =    2.779409
              splitnorm =    0.150000
                 energy =   -0.460551
                kinetic =    6.461861
    potential(screened) =   -6.922412
       potential(ionic) =  -15.308744

POLgen: Perturbative polarization orbital with L=  2

POLgen: Polarization orbital for state 2p
Split based on tail norm

   izeta = 1
                     rc =    4.308162
                 energy =    2.237799
                kinetic =    4.172724
    potential(screened) =   -1.934925
       potential(ionic) =   -8.049815
atom: Total number of Sankey-type orbitals: 13

atm_pop: Valence configuration (for local Pseudopot. screening):
 2s( 2.00)                                                            
 2p( 4.00)                                                            
 3d( 0.00)                                                            
Vna: chval, zval:    6.00000   6.00000

Vna:  Cut-off radius for the neutral-atom potential:   4.308162
comcore: Pseudo-core radius Rcore=  1.354557

atom: _________________________________________________________________________

<basis_specs>
===============================================================================
H.4                  Z=   1    Mass=  1.0080        Charge= 0.17977+309
Lmxo=1 Lmxkb= 1    BasisType=split      Semic=F
L=0  Nsemic=0  Cnfigmx=1
          i=1  nzeta=2  polorb=1  (1s)  (to be polarized perturbatively)
            splnorm:   0.15000    
               vcte:    40.000    
               rinn:  -0.90000    
               qcoe:    0.0000    
               qyuk:    0.0000    
               qwid:   0.10000E-01
                rcs:    0.0000      0.0000    
            lambdas:    1.0000      1.0000    
L=1  Nsemic=0  Cnfigmx=2
          i=1  nzeta=0  polorb=0  (2p)  (perturbative polarization orbital) (from 1s)
-------------------------------------------------------------------------------
L=0  Nkbl=1  erefs: 0.17977+309
L=1  Nkbl=1  erefs: 0.17977+309
===============================================================================
</basis_specs>

Using PAO.SplitTailNorm
atom: Called for H.4                   (Z =   1)
Maximum radius (at nrval) set to   50.00000 8518

read_vps: Pseudopotential generation method:
read_vps: ONCVPSP-3.Hamann's oncvpsp                        
Valence charge in pseudo generation:    1.00000

xc_check: Exchange-correlation functional:
xc_check: GGA Perdew-Wang 1991
xc_check: WARNING: Pseudopotential generated with GGA PBE functional
Got Vlocal (oncv-fit) from psml data
Choosing vlocal chloc cutoff:  1.926399
qtot up to nchloc:    0.99999831
atom: Maximum radius for chlocal:    1.92640
atom: Maximum radius for r*vlocal+2*Zval:    1.92640
Reading KB projs from H.4 psml data
Using scalar-relativistic projectors in PSML file

PSML: Kleinman-Bylander projectors: 
   l= 0   rc=  1.022342   Ekb= -3.402247
   l= 0   rc=  1.022342   Ekb= -1.068968
   l= 1   rc=  0.714575   Ekb= -1.006642

PSML: Total number of  Kleinman-Bylander projectors:   5
atom: -------------------------------------------------------------------------

atom: SANKEY-TYPE ORBITALS:
atom: Selected multiple-zeta basis: split     

SPLIT: Orbitals with angular momentum L= 0

SPLIT: Basis orbitals for state 1s

SPLIT: PAO cut-off radius determined from an
SPLIT: energy shift=  0.010000 Ry
Split based on tail norm

   izeta = 1
                 lambda =    1.000000
                     rc =    5.253677
                 energy =   -0.470406
                kinetic =    0.960195
    potential(screened) =   -1.430601
       potential(ionic) =   -1.952752

   izeta = 2
                 rmatch =    3.528949
              splitnorm =    0.150000
                 energy =   -0.305540
                kinetic =    1.736116
    potential(screened) =   -2.041656
       potential(ionic) =   -2.588654

POLgen: Perturbative polarization orbital with L=  1

POLgen: Polarization orbital for state 1s
Split based on tail norm

   izeta = 1
                     rc =    5.253677
                 energy =    0.682911
                kinetic =    1.341514
    potential(screened) =   -0.658603
       potential(ionic) =   -1.145954
atom: Total number of Sankey-type orbitals:  5

atm_pop: Valence configuration (for local Pseudopot. screening):
 1s( 1.00)                                                            
 2p( 0.00)                                                            
Vna: chval, zval:    1.00000   1.00000

Vna:  Cut-off radius for the neutral-atom potential:   5.253677

atom: _________________________________________________________________________

prinput: Basis input 

PAO.BasisType split     

%block ChemicalSpeciesLabel
    1   25 Mn.1                    # Species index, atomic number, species label
    2    6 C.2                     # Species index, atomic number, species label
    3    8 O.3                     # Species index, atomic number, species label
    4    1 H.4                     # Species index, atomic number, species label
%endblock ChemicalSpeciesLabel

%block PAO.Basis                 # Define Basis set
# WARNING: This information might be incomplete!
Mn.1                  5                    # Species label, number of l-shells
 n=3   0   1                         # n, l, Nzeta 
   2.476   
   1.000   
 n=4   0   2                         # n, l, Nzeta 
   6.615      4.830   
   1.000      1.000   
 n=3   1   1                         # n, l, Nzeta 
   2.749   
   1.000   
 n=4   1   1                         # n, l, Nzeta 
   6.615   
   1.000   
 n=3   2   2                         # n, l, Nzeta 
   4.291      2.732   
   1.000      1.000   
C.2                   2                    # Species label, number of l-shells
 n=2   0   2                         # n, l, Nzeta 
   4.475      3.042   
   1.000      1.000   
 n=2   1   2 P   1                   # n, l, Nzeta, Polarization, NzetaPol
   5.458      3.692   
   1.000      1.000   
O.3                   2                    # Species label, number of l-shells
 n=2   0   2                         # n, l, Nzeta 
   3.532      2.297   
   1.000      1.000   
 n=2   1   2 P   1                   # n, l, Nzeta, Polarization, NzetaPol
   4.308      2.779   
   1.000      1.000   
H.4                   1                    # Species label, number of l-shells
 n=1   0   2 P   1                   # n, l, Nzeta, Polarization, NzetaPol
   5.254      3.529   
   1.000      1.000   
%endblock PAO.Basis

prinput: ----------------------------------------------------------------------

coor:   Atomic-coordinates input format  =     Cartesian coordinates
coor:                                          (in Angstroms)

siesta: Atomic coordinates (Bohr) and species
siesta:     -0.00000   3.49131  18.89726  1        1
siesta:      3.02356   1.74565  21.25942  1        2
siesta:      0.00000   0.00000  23.62158  2        3
siesta:     -0.00000   3.49131  25.98373  3        4
siesta:      3.02356   1.74565  16.53510  3        5
siesta:     -0.00000   3.49131  28.34589  4        6
siesta:      3.02356   1.74565  14.17295  4        7

siesta: System type = slab      

initatomlists: Number of atoms, orbitals, and projectors:      7    87    80

siesta: ******************** Simulation parameters ****************************
siesta:
siesta: The following are some of the parameters of the simulation.
siesta: A complete list of the parameters used, including default values,
siesta: can be found in file out.fdf
siesta:
redata: Spin configuration                          = collinear
redata: Number of spin components                   = 2
redata: Time-Reversal Symmetry                      = T
redata: Spin spiral                                 = F
redata: Long output                                 =   F
redata: Number of Atomic Species                    =        4
redata: Charge density info will appear in .RHO file
redata: Write Mulliken charges (when)               = none
redata: Write Mulliken Pop.                         = NO
redata: Write Hirshfeld charges (when)              = none
redata: Write Voronoi charges (when)                = none
redata: Write spin charge (when)                    = scf
redata: Matel table size (NRTAB)                    =     1024
redata: Mesh Cutoff                                 =   150.0000 Ry
redata: Net charge of the system                    =     0.0000 |e|
redata: Min. number of SCF Iter                     =        0
redata: Max. number of SCF Iter                     =      200
redata: SCF convergence failure will abort job
redata: SCF mix quantity                            = Hamiltonian
redata: Mix DM or H after convergence               =   F
redata: Recompute H after scf cycle                 =   F
redata: Mix DM in first SCF step                    =   T
redata: Write Pulay info on disk                    =   F
redata: New DM Occupancy tolerance                  = 0.000000000001
redata: No kicks to SCF
redata: DM Mixing Weight for Kicks                  =     0.5000
redata: Require Harris convergence for SCF          =   F
redata: Harris energy tolerance for SCF             =     0.000100 eV
redata: Require DM convergence for SCF              =   T
redata: DM tolerance for SCF                        =     0.000100
redata: Require EDM convergence for SCF             =   F
redata: EDM tolerance for SCF                       =     0.000100 eV
redata: Require H convergence for SCF               =   T
redata: Hamiltonian tolerance for SCF               =     0.000100 eV
redata: Require (free) Energy convergence for SCF   =   F
redata: (free) Energy tolerance for SCF             =     0.000100 eV
redata: Antiferro initial spin density              =   F
redata: Using DFT-D3 dispersion                     =   F
redata: Using Saved Data (generic)                  =   F
redata: Use continuation files for DM               =   T
redata: Neglect nonoverlap interactions             =   F
redata: Method of Calculation                       = Diagonalization
redata: Electronic Temperature                      =   300.0000 K
redata: Fix the spin of the system                  =   F
redata: Max. number of TDED Iter                    =        1
redata: Number of TDED substeps                     =        3
redata: Dynamics option                             = CG coord. optimization
redata: Variable cell                               =   T
redata: Use continuation files for CG               =   F
redata: Max atomic displ per move                   =     0.1058 Ang
redata: Maximum number of optimization moves        =      100
redata: Force tolerance                             =     0.0400 eV/Ang
redata: Stress tolerance                            =     1.0000 GPa
mix.SCF: Pulay mixing                            = Pulay
mix.SCF:    Variant                              = stable
mix.SCF:    History steps                        = 5
mix.SCF:    Linear mixing weight                 =     0.100000
mix.SCF:    Mixing weight                        =     0.100000
mix.SCF:    SVD condition                        = 0.1000E-07
mix.SCF: Spin-component mixing                   all
redata: ***********************************************************************

%block SCF.Mixers
  Pulay
%endblock SCF.Mixers

%block SCF.Mixer.Pulay
  # Mixing method
  method pulay
  variant stable

  # Mixing options
  weight 0.1000
  weight.linear 0.1000
  history 5
%endblock SCF.Mixer.Pulay

DM_history_depth set to one: no extrapolation allowed by default for geometry relaxation
Size of DM history Fstack: 1
Total number of electrons:    48.000000
Total ionic charge:    48.000000

* ProcessorY, Blocksize:    1  64


* Orbital distribution balance (max,min):    87    87

k-point displ. along   1 input, could be:     0.00    0.50
k-point displ. along   2 input, could be:     0.00    0.50
 Kpoints in:           24 . Kpoints trimmed:           22

siesta: k-grid: Number of k-points = 22
siesta: k-points from Monkhorst-Pack grid
siesta: k-cutoff (effective) =     9.600 Ang
siesta: k-point supercell and displacements
siesta: k-grid:     6     0     0      0.000
siesta: k-grid:     0     6     0      0.000
siesta: k-grid:     0     0     1      0.000

diag: Algorithm                                     = D&C
diag: Parallel over k                               =   F
diag: Use parallel 2D distribution                  =   F
diag: Parallel block-size                           = 64
diag: Parallel distribution                         =     1 x     1
diag: Used triangular part                          = Lower
diag: Absolute tolerance                            =  0.100E-15
diag: Orthogonalization factor                      =  0.100E-05
diag: Memory factor                                 =  1.0000

superc: Internal auxiliary supercell:     7 x     5 x     1  =      35
superc: Number of atoms, orbitals, and projectors:    245   3045   2800


ts: **************************************************************
ts: Save H and S matrices                           =    F
ts: Save DM and EDM matrices                        =    F
ts: Only save the overlap matrix S                  =    F
ts: **************************************************************

************************ Begin: TS CHECKS AND WARNINGS ************************
************************ End: TS CHECKS AND WARNINGS **************************


                     ====================================
                        Begin CG opt. move =      0
                     ====================================

superc: Internal auxiliary supercell:     7 x     5 x     1  =      35
superc: Number of atoms, orbitals, and projectors:    245   3045   2800

outcell: Unit cell vectors (Ang):
        3.200000    0.000000    0.000000
       -1.600000    2.771281    0.000000
        0.000000    0.000000   25.000000

outcell: Cell vector modules (Ang)   :    3.200000    3.200000   25.000000
outcell: Cell angles (23,13,12) (deg):     90.0000     90.0000    120.0000
outcell: Cell volume (Ang**3)        :    221.7025
<dSpData1D:S at geom step 0
  <sparsity:sparsity for geom step 0
    nrows_g=87 nrows=87 sparsity=6.4076 nnzs=48499, refcount: 7>
  <dData1D:(new from dSpData1D) n=48499, refcount: 1>
refcount: 1>
new_DM -- step:     1
Initializing Density Matrix...

Attempting to read DM from file... Failed...
WARNING: Wrong number of orbitals in DM file: 77
WARNING: Expected number of orbitals in DM file: 87
WARNING: Falling back to alternate initialization of DM.
DM filled with atomic data (user-defined):
<dSpData2D:DM initialized from atoms
  <sparsity:sparsity for geom step 0
    nrows_g=87 nrows=87 sparsity=6.4076 nnzs=48499, refcount: 8>
  <dData2D:DM n=48499 m=2, refcount: 1>
refcount: 1>
No. of atoms with KB's overlaping orbs in proc 0. Max # of overlaps:      53     190

InitMesh: MESH = 24 x 24 x 192 = 110592
InitMesh: Mesh cutoff (required, used) =   150.000   163.014 Ry
New grid distribution [1]: sub = 2

stepf: Fermi-Dirac step function

siesta: Program's energy decomposition (eV):
siesta: Ebs     =     -2423.093099
siesta: Eions   =      9678.753412
siesta: Ena     =      1082.674349
siesta: Ekin    =      2950.064806
siesta: Enl     =      -407.308406
siesta: Eso     =         0.000000
siesta: Edftu   =         0.000000
siesta: DEna    =       263.902226
siesta: DUscf   =       146.330786
siesta: DUext   =         0.000000
siesta: Ex      =     -1169.598048
siesta: Ec      =       -73.206229
siesta: Exc     =     -1242.804278
siesta: EbV     =         0.000000
siesta: eta*DQ  =         0.000000
siesta: Emadel  =         0.000000
siesta: Emeta   =         0.000000
siesta: Emolmec =         0.000000
siesta: Ekinion =         0.000000
siesta: Eharris =     -6628.286351
siesta: Etot    =     -6885.893929
siesta: FreeEng =     -6885.898306

        iscf     Eharris(eV)        E_KS(eV)     FreeEng(eV)     dDmax    Ef(eV) dHmax(eV)
   scf:    1    -6628.286351    -6885.893929    -6885.898306  0.502095 -2.577668 75.485832
     spin moment: {S} , |S| = {        0.0        0.0    0.00000 }     0.00000
timer: Routine,Calls,Time,% = IterSCF        1       0.507   1.48
   scf:    2    -4696.898797    -6393.367765    -6393.388743  0.863726 -5.503096153.947338
     spin moment: {S} , |S| = {        0.0        0.0    0.00000 }     0.00000
   scf:    3    -6876.901047    -7002.164628    -7002.177355  0.682639 -4.100103 19.836635
     spin moment: {S} , |S| = {        0.0        0.0    0.00000 }     0.00000
   scf:    4    -6952.618225    -7001.516458    -7001.537089  0.303279 -4.056964 17.791405
     spin moment: {S} , |S| = {        0.0        0.0    0.00000 }     0.00000
   scf:    5    -7017.319444    -7015.324024    -7015.352664  0.131277 -4.141962  5.729496
     spin moment: {S} , |S| = {        0.0        0.0    0.00000 }     0.00000
   scf:    6    -7014.978904    -7015.851024    -7015.877648  0.066759 -3.901862  4.730014
     spin moment: {S} , |S| = {        0.0        0.0    0.00000 }     0.00000
   scf:    7    -7016.748152    -7016.517622    -7016.546106  0.032399 -3.712410  0.938203
     spin moment: {S} , |S| = {        0.0        0.0    0.00000 }     0.00000
   scf:    8    -7016.599347    -7016.596145    -7016.624242  0.019259 -3.601983  0.571178
     spin moment: {S} , |S| = {        0.0        0.0    0.00000 }     0.00000
   scf:    9    -7016.610459    -7016.608796    -7016.636867  0.007591 -3.570711  0.353574
     spin moment: {S} , |S| = {        0.0        0.0    0.00000 }     0.00000
   scf:   10    -7016.607869    -7016.609299    -7016.637425  0.003271 -3.549270  0.416553
     spin moment: {S} , |S| = {        0.0        0.0    0.00000 }     0.00000
   scf:   11    -7016.615399    -7016.612947    -7016.641097  0.002527 -3.523118  0.306541
     spin moment: {S} , |S| = {        0.0        0.0    0.00000 }     0.00000
   scf:   12    -7016.612071    -7016.612820    -7016.641010  0.003160 -3.495476  0.375605
     spin moment: {S} , |S| = {        0.0        0.0    0.00000 }     0.00000
   scf:   13    -7016.618227    -7016.616921    -7016.645186  0.006812 -3.394079  0.066850
     spin moment: {S} , |S| = {        0.0        0.0    0.00000 }     0.00000
   scf:   14    -7016.617043    -7016.617059    -7016.645331  0.000662 -3.387284  0.037880
     spin moment: {S} , |S| = {        0.0        0.0    0.00000 }     0.00000
   scf:   15    -7016.617052    -7016.617069    -7016.645346  0.000795 -3.379732  0.017849
     spin moment: {S} , |S| = {        0.0        0.0    0.00000 }     0.00000
   scf:   16    -7016.617101    -7016.617087    -7016.645359  0.000160 -3.378346  0.016280
     spin moment: {S} , |S| = {        0.0        0.0    0.00000 }     0.00000
   scf:   17    -7016.617144    -7016.617118    -7016.645378  0.000223 -3.376378  0.007691
     spin moment: {S} , |S| = {        0.0        0.0    0.00000 }     0.00000
   scf:   18    -7016.617123    -7016.617122    -7016.645378  0.000114 -3.375612  0.008746
     spin moment: {S} , |S| = {        0.0        0.0    0.00000 }     0.00000
   scf:   19    -7016.617130    -7016.617128    -7016.645381  0.000132 -3.376559  0.006164
     spin moment: {S} , |S| = {        0.0        0.0    0.00000 }     0.00000
   scf:   20    -7016.617128    -7016.617128    -7016.645380  0.000041 -3.375343  0.004655
     spin moment: {S} , |S| = {        0.0        0.0    0.00000 }     0.00000
   scf:   21    -7016.617118    -7016.617125    -7016.645381  0.000184 -3.374094  0.008402
     spin moment: {S} , |S| = {        0.0        0.0    0.00000 }     0.00000
   scf:   22    -7016.617132    -7016.617129    -7016.645382  0.000068 -3.371948  0.003053
     spin moment: {S} , |S| = {        0.0        0.0    0.00000 }     0.00000
   scf:   23    -7016.617129    -7016.617130    -7016.645383  0.000063 -3.372144  0.002720
     spin moment: {S} , |S| = {        0.0        0.0    0.00000 }     0.00000
   scf:   24    -7016.617130    -7016.617130    -7016.645383  0.000022 -3.372291  0.002720
     spin moment: {S} , |S| = {        0.0        0.0    0.00000 }     0.00000
   scf:   25    -7016.617127    -7016.617129    -7016.645384  0.000034 -3.372658  0.001059
     spin moment: {S} , |S| = {        0.0        0.0    0.00000 }     0.00000
   scf:   26    -7016.617127    -7016.617128    -7016.645384  0.000032 -3.372467  0.000262
     spin moment: {S} , |S| = {        0.0        0.0    0.00000 }     0.00000
   scf:   27    -7016.617128    -7016.617128    -7016.645384  0.000004 -3.372441  0.000101
     spin moment: {S} , |S| = {        0.0        0.0    0.00000 }     0.00000
   scf:   28    -7016.617128    -7016.617128    -7016.645384  0.000001 -3.372434  0.000044
     spin moment: {S} , |S| = {        0.0        0.0    0.00000 }     0.00000

SCF Convergence by DM+H criterion
max |DM_out - DM_in|         :     0.0000014212
max |H_out - H_in|      (eV) :     0.0000437827
SCF cycle converged after 28 iterations

Using DM_out to compute the final energy and forces
No. of atoms with KB's overlaping orbs in proc 0. Max # of overlaps:      53     190

siesta: E_KS(eV) =            -7016.6171

siesta: E_KS - E_eggbox =     -7016.6171

siesta: Atomic forces (eV/Ang):
----------------------------------------
   Tot   -0.000029    0.000017   -0.008015
----------------------------------------
   Max    4.636619
   Res    1.826668    sqrt( Sum f_i^2 / 3N )
----------------------------------------
   Max    4.636619    constrained

Stress tensor Voigt[x,y,z,yz,xz,xy] (kbar):       63.33       63.46      119.62        0.00       -0.00        0.11
(Free)E + p*V (eV/cell)    -7028.0108
Target enthalpy (eV/cell)    -7016.6454

siesta: Stress tensor (static) (eV/Ang**3):
         0.039527    0.000070   -0.000001
         0.000070    0.039608    0.000000
        -0.000001    0.000000    0.074658

siesta: Pressure (static):        -82.13451663  kBar

siesta: Stress tensor (total) (eV/Ang**3):
         0.039527    0.000070   -0.000001
         0.000070    0.039608    0.000000
        -0.000001    0.000000    0.074658

siesta: Pressure (total):        -82.13451663  kBar

cgvc: No target stress found, assuming hydrostatic MD.TargetPressure.

cgvc: Target stress (kBar)
cgvc:        -0.000       0.000       0.000
cgvc:         0.000      -0.000       0.000
cgvc:         0.000       0.000      -0.000

                     ====================================
                        Begin CG opt. move =      1
                     ====================================
k-point displ. along   1 input, could be:     0.00    0.50
k-point displ. along   2 input, could be:     0.00    0.50
 Kpoints in:           24 . Kpoints trimmed:           22

siesta: k-grid: Number of k-points = 22
siesta: k-points from Monkhorst-Pack grid
siesta: k-cutoff (effective) =     9.562 Ang
siesta: k-point supercell and displacements
siesta: k-grid:     6     0     0      0.000
siesta: k-grid:     0     6     0      0.000
siesta: k-grid:     0     0     1      0.000

superc: Internal auxiliary supercell:     7 x     5 x     1  =      35
superc: Number of atoms, orbitals, and projectors:    245   3045   2800

outcell: Unit cell vectors (Ang):
        3.187286   -0.000023    0.000000
       -1.593663    2.760259   -0.000000
        0.000001   -0.000001   24.812390

outcell: Cell vector modules (Ang)   :    3.187286    3.187286   24.812390
outcell: Cell angles (23,13,12) (deg):     90.0000     90.0000    120.0008
outcell: Cell volume (Ang**3)        :    218.2920
<dSpData1D:S at geom step 1
  <sparsity:sparsity for geom step 1
    nrows_g=87 nrows=87 sparsity=6.4189 nnzs=48585, refcount: 7>
  <dData1D:(new from dSpData1D) n=48585, refcount: 1>
refcount: 1>
new_DM -- step:     2
Re-using DM from previous geometries...
Number of DMs in history: 1
 DM extrapolation coefficients: 
1   1.00000
New DM after history re-use:
<dSpData2D:SpM extrapolated using coords
  <sparsity:sparsity for geom step 1
    nrows_g=87 nrows=87 sparsity=6.4189 nnzs=48585, refcount: 9>
  <dData2D:(temp array for extrapolation) n=48585 m=2, refcount: 1>
refcount: 1>
Note: For starting DM, Qtot, Tr[D*S] =         48.00000000         48.11923459
No. of atoms with KB's overlaping orbs in proc 0. Max # of overlaps:      53     190

InitMesh: MESH = 24 x 24 x 192 = 110592
InitMesh: Mesh cutoff (required, used) =   150.000   165.488 Ry
New grid distribution [1]: sub = 2

        iscf     Eharris(eV)        E_KS(eV)     FreeEng(eV)     dDmax    Ef(eV) dHmax(eV)
   scf:    1    -6866.476009    -6967.365468    -6967.381683  0.296578 -5.348124 49.384002
     spin moment: {S} , |S| = {        0.0        0.0    0.00000 }     0.00000
   scf:    2    25188.426296     3463.811114     3463.811114 11.612371  4.278618683.113556
     spin moment: {S} , |S| = {        0.0        0.0    0.00000 }     0.00000
   scf:    3    -8664.568119    -6943.165234    -6943.180350 11.603183 -2.800728 56.531507
     spin moment: {S} , |S| = {        0.0        0.0    0.00000 }     0.00000
   scf:    4    -6997.764951    -7008.300705    -7008.320789  0.263589 -3.355164 20.484114
     spin moment: {S} , |S| = {        0.0        0.0    0.00000 }     0.00000
   scf:    5    -6986.154643    -7009.015844    -7009.040810  0.190402 -3.567718 15.271729
     spin moment: {S} , |S| = {        0.0        0.0    0.00000 }     0.00000
   scf:    6    -7020.282661    -7016.890384    -7016.919460  0.091228 -3.581416  4.990993
     spin moment: {S} , |S| = {        0.0        0.0    0.00000 }     0.00000
   scf:    7    -7014.544700    -7015.908390    -7015.934743  0.022854 -3.388364  7.459477
     spin moment: {S} , |S| = {        0.0        0.0    0.00000 }     0.00000
   scf:    8    -7013.080480    -7016.745465    -7016.773128  0.100800 -3.385183  5.829440
     spin moment: {S} , |S| = {        0.0        0.0    0.00000 }     0.00000
   scf:    9    -7016.794879    -7017.450552    -7017.478925  0.053588 -3.288123  2.119411
     spin moment: {S} , |S| = {        0.0        0.0    0.00000 }     0.00000
   scf:   10    -7017.569532    -7017.551928    -7017.580871  0.012237 -3.313831  0.253818
     spin moment: {S} , |S| = {        0.0        0.0    0.00000 }     0.00000
   scf:   11    -7017.553148    -7017.553512    -7017.582484  0.002068 -3.312122  0.142106
     spin moment: {S} , |S| = {        0.0        0.0    0.00000 }     0.00000
   scf:   12    -7017.554472    -7017.554290    -7017.583275  0.001403 -3.309936  0.035487
     spin moment: {S} , |S| = {        0.0        0.0    0.00000 }     0.00000
   scf:   13    -7017.554356    -7017.554365    -7017.583368  0.001004 -3.307969  0.039007
     spin moment: {S} , |S| = {        0.0        0.0    0.00000 }     0.00000
   scf:   14    -7017.554402    -7017.554388    -7017.583393  0.000240 -3.306771  0.027521
     spin moment: {S} , |S| = {        0.0        0.0    0.00000 }     0.00000
   scf:   15    -7017.554383    -7017.554412    -7017.583417  0.000331 -3.304370  0.022082
     spin moment: {S} , |S| = {        0.0        0.0    0.00000 }     0.00000
   scf:   16    -7017.554420    -7017.554417    -7017.583422  0.000055 -3.303051  0.016734
     spin moment: {S} , |S| = {        0.0        0.0    0.00000 }     0.00000
   scf:   17    -7017.554421    -7017.554420    -7017.583426  0.000091 -3.301373  0.006948
     spin moment: {S} , |S| = {        0.0        0.0    0.00000 }     0.00000
   scf:   18    -7017.554415    -7017.554419    -7017.583424  0.000076 -3.299813  0.008235
     spin moment: {S} , |S| = {        0.0        0.0    0.00000 }     0.00000
   scf:   19    -7017.554422    -7017.554422    -7017.583427  0.000087 -3.299907  0.001187
     spin moment: {S} , |S| = {        0.0        0.0    0.00000 }     0.00000
   scf:   20    -7017.554422    -7017.554422    -7017.583427  0.000020 -3.300121  0.000814
     spin moment: {S} , |S| = {        0.0        0.0    0.00000 }     0.00000
   scf:   21    -7017.554422    -7017.554422    -7017.583428  0.000042 -3.300272  0.000466
     spin moment: {S} , |S| = {        0.0        0.0    0.00000 }     0.00000
   scf:   22    -7017.554422    -7017.554422    -7017.583428  0.000004 -3.300377  0.000369
     spin moment: {S} , |S| = {        0.0        0.0    0.00000 }     0.00000
   scf:   23    -7017.554422    -7017.554422    -7017.583428  0.000004 -3.300299  0.000141
     spin moment: {S} , |S| = {        0.0        0.0    0.00000 }     0.00000
   scf:   24    -7017.554422    -7017.554422    -7017.583428  0.000001 -3.300279  0.000069
     spin moment: {S} , |S| = {        0.0        0.0    0.00000 }     0.00000

SCF Convergence by DM+H criterion
max |DM_out - DM_in|         :     0.0000009829
max |H_out - H_in|      (eV) :     0.0000692919
SCF cycle converged after 24 iterations

Using DM_out to compute the final energy and forces
No. of atoms with KB's overlaping orbs in proc 0. Max # of overlaps:      53     190

siesta: E_KS(eV) =            -7017.5544

siesta: Atomic forces (eV/Ang):
----------------------------------------
   Tot    0.000078   -0.000045    0.020502
----------------------------------------
   Max    3.899214
   Res    1.600117    sqrt( Sum f_i^2 / 3N )
----------------------------------------
   Max    3.899214    constrained

Stress tensor Voigt[x,y,z,yz,xz,xy] (kbar):       61.32       61.45      102.91        0.00       -0.01        0.11
(Free)E + p*V (eV/cell)    -7027.8328
Target enthalpy (eV/cell)    -7017.5834

siesta: Stress tensor (static) (eV/Ang**3):
         0.038273    0.000068   -0.000004
         0.000068    0.038352    0.000002
        -0.000004    0.000002    0.064233

siesta: Pressure (static):        -75.22657748  kBar

siesta: Stress tensor (total) (eV/Ang**3):
         0.038273    0.000068   -0.000004
         0.000068    0.038352    0.000002
        -0.000004    0.000002    0.064233

siesta: Pressure (total):        -75.22657748  kBar

                     ====================================
                        Begin CG opt. move =      2
                     ====================================
k-point displ. along   1 input, could be:     0.00    0.50
k-point displ. along   2 input, could be:     0.00    0.50
 Kpoints in:           24 . Kpoints trimmed:           22

siesta: k-grid: Number of k-points = 22
siesta: k-points from Monkhorst-Pack grid
siesta: k-cutoff (effective) =     9.501 Ang
siesta: k-point supercell and displacements
siesta: k-grid:     6     0     0      0.000
siesta: k-grid:     0     6     0      0.000
siesta: k-grid:     0     0     1      0.000

superc: Internal auxiliary supercell:     7 x     5 x     1  =      35
superc: Number of atoms, orbitals, and projectors:    245   3045   2800

outcell: Unit cell vectors (Ang):
        3.166944   -0.000059    0.000000
       -1.583523    2.742624   -0.000000
        0.000003   -0.000002   24.512215

outcell: Cell vector modules (Ang)   :    3.166944    3.166944   24.512215
outcell: Cell angles (23,13,12) (deg):     90.0000     90.0000    120.0021
outcell: Cell volume (Ang**3)        :    212.9044
<dSpData1D:S at geom step 2
  <sparsity:sparsity for geom step 2
    nrows_g=87 nrows=87 sparsity=6.4728 nnzs=48993, refcount: 7>
  <dData1D:(new from dSpData1D) n=48993, refcount: 1>
refcount: 1>
new_DM -- step:     3
Re-using DM from previous geometries...
Number of DMs in history: 1
 DM extrapolation coefficients: 
1   1.00000
New DM after history re-use:
<dSpData2D:SpM extrapolated using coords
  <sparsity:sparsity for geom step 2
    nrows_g=87 nrows=87 sparsity=6.4728 nnzs=48993, refcount: 9>
  <dData2D:(temp array for extrapolation) n=48993 m=2, refcount: 1>
refcount: 1>
Note: For starting DM, Qtot, Tr[D*S] =         48.00000000         48.19198003
No. of atoms with KB's overlaping orbs in proc 0. Max # of overlaps:      53     191

InitMesh: MESH = 24 x 24 x 192 = 110592
InitMesh: Mesh cutoff (required, used) =   150.000   169.566 Ry
New grid distribution [1]: sub = 2

        iscf     Eharris(eV)        E_KS(eV)     FreeEng(eV)     dDmax    Ef(eV) dHmax(eV)
   scf:    1    -6444.890099    -6828.301979    -6828.309682  0.521483 -6.350066 92.035813
     spin moment: {S} , |S| = {        0.0        0.0    0.00000 }     0.00000
   scf:    2    69141.839092    17603.980317    17603.974375 26.503273 -0.422686**********
     spin moment: {S} , |S| = {        0.0        0.0    0.00000 }     0.00000
   scf:    3   -12280.656791    -6731.105147    -6731.141444 25.913521 -1.405843113.481162
     spin moment: {S} , |S| = {        0.0        0.0    0.00000 }     0.00000
   scf:    4    -7055.813511    -6929.937057    -6929.954663  0.455715 -2.186764 57.658611
     spin moment: {S} , |S| = {        0.0        0.0    0.00000 }     0.00000
   scf:    5    -6964.905767    -6965.478282    -6965.494134  0.238646 -3.199493 45.337289
     spin moment: {S} , |S| = {        0.0        0.0    0.00000 }     0.00000
   scf:    6    -7033.185919    -7007.308244    -7007.334149  0.120777 -3.345153 21.365540
     spin moment: {S} , |S| = {        0.0        0.0    0.00000 }     0.00000
   scf:    7    -6923.514551    -6996.462844    -6996.487927  0.292131 -3.849004 31.955478
     spin moment: {S} , |S| = {        0.0        0.0    0.00000 }     0.00000
   scf:    8    -6993.047585    -7015.221067    -7015.244930  0.233630 -3.430971 12.200866
     spin moment: {S} , |S| = {        0.0        0.0    0.00000 }     0.00000
   scf:    9    -7001.079202    -7014.637058    -7014.658005  0.139841 -3.604476 12.404213
     spin moment: {S} , |S| = {        0.0        0.0    0.00000 }     0.00000
   scf:   10    -7019.066991    -7017.295570    -7017.320030  0.041943 -3.481982  7.127463
     spin moment: {S} , |S| = {        0.0        0.0    0.00000 }     0.00000
   scf:   11    -7017.818607    -7018.421352    -7018.446104  0.056752 -3.383347  1.603062
     spin moment: {S} , |S| = {        0.0        0.0    0.00000 }     0.00000
   scf:   12    -7018.374406    -7018.467154    -7018.492892  0.015832 -3.387925  0.788093
     spin moment: {S} , |S| = {        0.0        0.0    0.00000 }     0.00000
   scf:   13    -7018.487773    -7018.483100    -7018.508628  0.004410 -3.385009  0.158535
     spin moment: {S} , |S| = {        0.0        0.0    0.00000 }     0.00000
   scf:   14    -7018.484627    -7018.484310    -7018.509820  0.001599 -3.383833  0.056548
     spin moment: {S} , |S| = {        0.0        0.0    0.00000 }     0.00000
   scf:   15    -7018.484544    -7018.484443    -7018.509944  0.000302 -3.386393  0.071849
     spin moment: {S} , |S| = {        0.0        0.0    0.00000 }     0.00000
   scf:   16    -7018.484776    -7018.484656    -7018.510173  0.001030 -3.395459  0.033926
     spin moment: {S} , |S| = {        0.0        0.0    0.00000 }     0.00000
   scf:   17    -7018.484674    -7018.484676    -7018.510202  0.000257 -3.396475  0.010895
     spin moment: {S} , |S| = {        0.0        0.0    0.00000 }     0.00000
   scf:   18    -7018.484677    -7018.484678    -7018.510206  0.000109 -3.395946  0.005243
     spin moment: {S} , |S| = {        0.0        0.0    0.00000 }     0.00000
   scf:   19    -7018.484677    -7018.484677    -7018.510207  0.000047 -3.395990  0.003473
     spin moment: {S} , |S| = {        0.0        0.0    0.00000 }     0.00000
   scf:   20    -7018.484672    -7018.484675    -7018.510209  0.000106 -3.396083  0.002583
     spin moment: {S} , |S| = {        0.0        0.0    0.00000 }     0.00000
   scf:   21    -7018.484673    -7018.484674    -7018.510209  0.000014 -3.396087  0.002172
     spin moment: {S} , |S| = {        0.0        0.0    0.00000 }     0.00000
   scf:   22    -7018.484668    -7018.484671    -7018.510209  0.000042 -3.395935  0.002948
     spin moment: {S} , |S| = {        0.0        0.0    0.00000 }     0.00000
   scf:   23    -7018.484668    -7018.484670    -7018.510209  0.000027 -3.395942  0.000985
     spin moment: {S} , |S| = {        0.0        0.0    0.00000 }     0.00000
   scf:   24    -7018.484670    -7018.484670    -7018.510209  0.000004 -3.395949  0.000408
     spin moment: {S} , |S| = {        0.0        0.0    0.00000 }     0.00000
   scf:   25    -7018.484670    -7018.484670    -7018.510209  0.000007 -3.395951  0.000236
     spin moment: {S} , |S| = {        0.0        0.0    0.00000 }     0.00000
   scf:   26    -7018.484670    -7018.484670    -7018.510209  0.000003 -3.395941  0.000297
     spin moment: {S} , |S| = {        0.0        0.0    0.00000 }     0.00000
   scf:   27    -7018.484670    -7018.484670    -7018.510209  0.000003 -3.395945  0.000096
     spin moment: {S} , |S| = {        0.0        0.0    0.00000 }     0.00000

SCF Convergence by DM+H criterion
max |DM_out - DM_in|         :     0.0000026704
max |H_out - H_in|      (eV) :     0.0000957416
SCF cycle converged after 27 iterations

Using DM_out to compute the final energy and forces
No. of atoms with KB's overlaping orbs in proc 0. Max # of overlaps:      53     191

siesta: E_KS(eV) =            -7018.4847

siesta: Atomic forces (eV/Ang):
----------------------------------------
   Tot   -0.000430    0.000248    0.039547
----------------------------------------
   Max    1.898900
   Res    0.612021    sqrt( Sum f_i^2 / 3N )
----------------------------------------
   Max    1.898900    constrained

Stress tensor Voigt[x,y,z,yz,xz,xy] (kbar):       58.75       58.87       41.84        0.01       -0.02        0.10
(Free)E + p*V (eV/cell)    -7025.5733
Target enthalpy (eV/cell)    -7018.5102

siesta: Stress tensor (static) (eV/Ang**3):
         0.036671    0.000060   -0.000014
         0.000060    0.036741    0.000008
        -0.000014    0.000008    0.026112

siesta: Pressure (static):        -53.15202743  kBar

siesta: Stress tensor (total) (eV/Ang**3):
         0.036671    0.000060   -0.000014
         0.000060    0.036741    0.000008
        -0.000014    0.000008    0.026112

siesta: Pressure (total):        -53.15202743  kBar

                     ====================================
                        Begin CG opt. move =      3
                     ====================================
k-point displ. along   1 input, could be:     0.00    0.50
k-point displ. along   2 input, could be:     0.00    0.50
 Kpoints in:           24 . Kpoints trimmed:           22

siesta: k-grid: Number of k-points = 22
siesta: k-points from Monkhorst-Pack grid
siesta: k-cutoff (effective) =     9.423 Ang
siesta: k-point supercell and displacements
siesta: k-grid:     6     0     0      0.000
siesta: k-grid:     0     6     0      0.000
siesta: k-grid:     0     0     1      0.000

superc: Internal auxiliary supercell:     7 x     5 x     1  =      35
superc: Number of atoms, orbitals, and projectors:    245   3045   2800

outcell: Unit cell vectors (Ang):
        3.141340   -0.000104    0.000001
       -1.570760    2.720428   -0.000001
        0.000006   -0.000003   24.134403

outcell: Cell vector modules (Ang)   :    3.141340    3.141340   24.134403
outcell: Cell angles (23,13,12) (deg):     90.0000     90.0000    120.0038
outcell: Cell volume (Ang**3)        :    206.2436
<dSpData1D:S at geom step 3
  <sparsity:sparsity for geom step 3
    nrows_g=87 nrows=87 sparsity=6.6586 nnzs=50399, refcount: 7>
  <dData1D:(new from dSpData1D) n=50399, refcount: 1>
refcount: 1>
new_DM -- step:     4
Re-using DM from previous geometries...
Number of DMs in history: 1
 DM extrapolation coefficients: 
1   1.00000
New DM after history re-use:
<dSpData2D:SpM extrapolated using coords
  <sparsity:sparsity for geom step 3
    nrows_g=87 nrows=87 sparsity=6.6586 nnzs=50399, refcount: 9>
  <dData2D:(temp array for extrapolation) n=50399 m=2, refcount: 1>
refcount: 1>
Note: For starting DM, Qtot, Tr[D*S] =         48.00000000         48.22863363
No. of atoms with KB's overlaping orbs in proc 0. Max # of overlaps:      53     191

InitMesh: MESH = 24 x 24 x 180 = 103680
InitMesh: Mesh cutoff (required, used) =   150.000   153.735 Ry
New grid distribution [1]: sub = 2

        iscf     Eharris(eV)        E_KS(eV)     FreeEng(eV)     dDmax    Ef(eV) dHmax(eV)
   scf:    1    -6166.416601    -6735.016709    -6735.030375  0.555986 -6.915615111.373962
     spin moment: {S} , |S| = {        0.0        0.0    0.00000 }     0.00000
   scf:    2    81584.684680    21464.954451    21464.952460 60.033867  4.110107**********
     spin moment: {S} , |S| = {        0.0        0.0    0.00000 }     0.00000
   scf:    3   -13427.207595    -6557.720394    -6557.734935 59.956813 -1.057581145.094984
     spin moment: {S} , |S| = {        0.0        0.0    0.00000 }     0.00000
   scf:    4    -6433.489211    -6496.759956    -6496.774356  0.422842 -1.025459156.278673
     spin moment: {S} , |S| = {        0.0        0.0    0.00000 }     0.00000
   scf:    5    -6604.459286    -6552.303076    -6552.314932  0.601365 -1.490303143.889934
     spin moment: {S} , |S| = {        0.0        0.0    0.00000 }     0.00000
   scf:    6    -6397.706586    -6900.064321    -6900.075242  0.724180 -1.578731 63.414869
     spin moment: {S} , |S| = {        0.0        0.0    0.00000 }     0.00000
   scf:    7    -6638.526740    -6942.658859    -6942.665078  0.651492 -6.329178 64.575566
     spin moment: {S} , |S| = {        0.0        0.0    0.00000 }     0.00000
   scf:    8    -6836.447865    -6984.437663    -6984.449845  0.482889 -3.367705 33.064324
     spin moment: {S} , |S| = {        0.0        0.0    0.00000 }     0.00000
   scf:    9    -6947.822466    -6994.184675    -6994.205796  0.265583 -2.999443 33.984071
     spin moment: {S} , |S| = {        0.0        0.0    0.00000 }     0.00000
   scf:   10    -6981.183215    -6987.909899    -6987.931145  0.041519 -2.509957 37.809496
     spin moment: {S} , |S| = {        0.0        0.0    0.00000 }     0.00000
   scf:   11    -6973.972493    -6987.328659    -6987.351776  0.114060 -1.683395 35.474226
     spin moment: {S} , |S| = {        0.0        0.0    0.00000 }     0.00000
   scf:   12    -6682.865744    -6931.285979    -6931.296852  0.390734 -4.881659 56.321012
     spin moment: {S} , |S| = {        0.0        0.0    0.00000 }     0.00000
   scf:   13    -6915.635361    -7002.167464    -7002.192254  0.424083 -3.224475 26.958376
     spin moment: {S} , |S| = {        0.0        0.0    0.00000 }     0.00000
   scf:   14    -7000.931626    -7001.976348    -7001.998555  0.051966 -2.439467 25.874429
     spin moment: {S} , |S| = {        0.0        0.0    0.00000 }     0.00000
   scf:   15    -7012.551928    -7007.614409    -7007.638093  0.031224 -3.023852 20.021347
     spin moment: {S} , |S| = {        0.0        0.0    0.00000 }     0.00000
   scf:   16    -7012.533457    -7010.178120    -7010.201923  0.015184 -3.253953 16.737514
     spin moment: {S} , |S| = {        0.0        0.0    0.00000 }     0.00000
   scf:   17    -7017.647447    -7014.502264    -7014.525426  0.034773 -3.630764  9.153859
     spin moment: {S} , |S| = {        0.0        0.0    0.00000 }     0.00000
   scf:   18    -7015.210352    -7014.891335    -7014.915059  0.011294 -3.659566  8.038959
     spin moment: {S} , |S| = {        0.0        0.0    0.00000 }     0.00000
   scf:   19    -7016.884753    -7016.108288    -7016.132067  0.021447 -3.789141  3.638596
     spin moment: {S} , |S| = {        0.0        0.0    0.00000 }     0.00000
   scf:   20    -7016.531320    -7016.382336    -7016.406268  0.013212 -3.833655  1.406095
     spin moment: {S} , |S| = {        0.0        0.0    0.00000 }     0.00000
   scf:   21    -7016.198124    -7016.377839    -7016.400988  0.014811 -3.879415  1.344722
     spin moment: {S} , |S| = {        0.0        0.0    0.00000 }     0.00000
   scf:   22    -7016.239903    -7016.389427    -7016.413388  0.014080 -3.826339  1.282913
     spin moment: {S} , |S| = {        0.0        0.0    0.00000 }     0.00000
   scf:   23    -7015.325843    -7015.972159    -7015.995937  0.016083 -3.738204  4.404590
     spin moment: {S} , |S| = {        0.0        0.0    0.00000 }     0.00000
   scf:   24    -7016.573397    -7016.357302    -7016.381341  0.018428 -3.777144  1.665258
     spin moment: {S} , |S| = {        0.0        0.0    0.00000 }     0.00000
   scf:   25    -7016.443364    -7016.408800    -7016.432769  0.004716 -3.791787  0.830522
     spin moment: {S} , |S| = {        0.0        0.0    0.00000 }     0.00000
   scf:   26    -7016.417701    -7016.424942    -7016.448749  0.005596 -3.800243  0.182929
     spin moment: {S} , |S| = {        0.0        0.0    0.00000 }     0.00000
   scf:   27    -7016.424990    -7016.425630    -7016.449481  0.001869 -3.794386  0.062948
     spin moment: {S} , |S| = {        0.0        0.0    0.00000 }     0.00000
   scf:   28    -7016.425736    -7016.425717    -7016.449575  0.000382 -3.791484  0.010389
     spin moment: {S} , |S| = {        0.0        0.0    0.00000 }     0.00000
   scf:   29    -7016.425691    -7016.425709    -7016.449584  0.000216 -3.790097  0.010551
     spin moment: {S} , |S| = {        0.0        0.0    0.00000 }     0.00000
   scf:   30    -7016.425708    -7016.425714    -7016.449589  0.000305 -3.789775  0.009734
     spin moment: {S} , |S| = {        0.0        0.0    0.00000 }     0.00000
   scf:   31    -7016.425713    -7016.425714    -7016.449592  0.000088 -3.790004  0.003282
     spin moment: {S} , |S| = {        0.0        0.0    0.00000 }     0.00000
   scf:   32    -7016.425716    -7016.425715    -7016.449592  0.000019 -3.790167  0.001825
     spin moment: {S} , |S| = {        0.0        0.0    0.00000 }     0.00000
   scf:   33    -7016.425717    -7016.425716    -7016.449592  0.000064 -3.789878  0.002352
     spin moment: {S} , |S| = {        0.0        0.0    0.00000 }     0.00000
   scf:   34    -7016.425714    -7016.425715    -7016.449592  0.000020 -3.789854  0.000942
     spin moment: {S} , |S| = {        0.0        0.0    0.00000 }     0.00000
   scf:   35    -7016.425715    -7016.425715    -7016.449592  0.000027 -3.789754  0.000438
     spin moment: {S} , |S| = {        0.0        0.0    0.00000 }     0.00000
   scf:   36    -7016.425715    -7016.425715    -7016.449592  0.000006 -3.789755  0.000391
     spin moment: {S} , |S| = {        0.0        0.0    0.00000 }     0.00000
   scf:   37    -7016.425715    -7016.425715    -7016.449592  0.000007 -3.789755  0.000273
     spin moment: {S} , |S| = {        0.0        0.0    0.00000 }     0.00000
   scf:   38    -7016.425715    -7016.425715    -7016.449592  0.000003 -3.789775  0.000074
     spin moment: {S} , |S| = {        0.0        0.0    0.00000 }     0.00000

SCF Convergence by DM+H criterion
max |DM_out - DM_in|         :     0.0000026098
max |H_out - H_in|      (eV) :     0.0000736526
SCF cycle converged after 38 iterations

Using DM_out to compute the final energy and forces
No. of atoms with KB's overlaping orbs in proc 0. Max # of overlaps:      53     191

siesta: E_KS(eV) =            -7016.4257

siesta: Atomic forces (eV/Ang):
----------------------------------------
   Tot    0.000081   -0.000049    0.160098
----------------------------------------
   Max   19.530087
   Res    7.019983    sqrt( Sum f_i^2 / 3N )
----------------------------------------
   Max   19.530087    constrained

Stress tensor Voigt[x,y,z,yz,xz,xy] (kbar):       56.26       56.37     -151.91        0.03       -0.05        0.09
(Free)E + p*V (eV/cell)    -7014.7638
Target enthalpy (eV/cell)    -7016.4496

siesta: Stress tensor (static) (eV/Ang**3):
         0.035113    0.000058   -0.000030
         0.000058    0.035181    0.000017
        -0.000030    0.000017   -0.094815

siesta: Pressure (static):         13.09554140  kBar

siesta: Stress tensor (total) (eV/Ang**3):
         0.035113    0.000058   -0.000030
         0.000058    0.035181    0.000017
        -0.000030    0.000017   -0.094815

siesta: Pressure (total):         13.09554140  kBar

                     ====================================
                        Begin CG opt. move =      4
                     ====================================
k-point displ. along   1 input, could be:     0.00    0.50
k-point displ. along   2 input, could be:     0.00    0.50
 Kpoints in:           24 . Kpoints trimmed:           22

siesta: k-grid: Number of k-points = 22
siesta: k-points from Monkhorst-Pack grid
siesta: k-cutoff (effective) =     9.496 Ang
siesta: k-point supercell and displacements
siesta: k-grid:     6     0     0      0.000
siesta: k-grid:     0     6     0      0.000
siesta: k-grid:     0     0     1      0.000

superc: Internal auxiliary supercell:     7 x     5 x     1  =      35
superc: Number of atoms, orbitals, and projectors:    245   3045   2800

outcell: Unit cell vectors (Ang):
        3.165587   -0.000061    0.000000
       -1.582847    2.741448   -0.000000
        0.000004   -0.000002   24.492199

outcell: Cell vector modules (Ang)   :    3.165587    3.165587   24.492199
outcell: Cell angles (23,13,12) (deg):     90.0000     90.0000    120.0022
outcell: Cell volume (Ang**3)        :    212.5481
<dSpData1D:S at geom step 4
  <sparsity:sparsity for geom step 4
    nrows_g=87 nrows=87 sparsity=6.4443 nnzs=48777, refcount: 7>
  <dData1D:(new from dSpData1D) n=48777, refcount: 1>
refcount: 1>
new_DM -- step:     5
Re-using DM from previous geometries...
Number of DMs in history: 1
 DM extrapolation coefficients: 
1   1.00000
New DM after history re-use:
<dSpData2D:SpM extrapolated using coords
  <sparsity:sparsity for geom step 4
    nrows_g=87 nrows=87 sparsity=6.4443 nnzs=48777, refcount: 9>
  <dData2D:(temp array for extrapolation) n=48777 m=2, refcount: 1>
refcount: 1>
Note: For starting DM, Qtot, Tr[D*S] =         48.00000000         47.72247193
No. of atoms with KB's overlaping orbs in proc 0. Max # of overlaps:      53     191

InitMesh: MESH = 24 x 24 x 192 = 110592
InitMesh: Mesh cutoff (required, used) =   150.000   169.843 Ry
New grid distribution [1]: sub = 2

        iscf     Eharris(eV)        E_KS(eV)     FreeEng(eV)     dDmax    Ef(eV) dHmax(eV)
   scf:    1    -6684.793468    -6909.314236    -6909.324196  0.291347  0.007004 75.718106
     spin moment: {S} , |S| = {        0.0        0.0    0.00000 }     0.00000
   scf:    2     5609.343408    -3098.030560    -3098.038811  4.173117-37.936558421.495923
     spin moment: {S} , |S| = {        0.0        0.0    0.00000 }     0.00000
   scf:    3    -7729.499633    -5919.721468    -5919.726483  4.144943 -6.204232211.834005
     spin moment: {S} , |S| = {        0.0        0.0    0.00000 }     0.00000
   scf:    4    -5278.168262    -6761.976857    -6761.989754  1.385475  0.024606114.562481
     spin moment: {S} , |S| = {        0.0        0.0    0.00000 }     0.00000
   scf:    5    -6614.367954    -6690.512802    -6690.537790  0.260013  0.402953131.297930
     spin moment: {S} , |S| = {        0.0        0.0    0.00000 }     0.00000
   scf:    6    -6571.857603    -6636.880079    -6636.908246  0.148370 -0.073681141.025322
     spin moment: {S} , |S| = {        0.0        0.0    0.00000 }     0.00000
   scf:    7    -6898.176981    -7000.621440    -7000.643724  1.430910 -3.049278 21.621467
     spin moment: {S} , |S| = {        0.0        0.0    0.00000 }     0.00000
   scf:    8    -7003.506434    -7009.648421    -7009.673473  0.150041 -2.593027 17.747534
     spin moment: {S} , |S| = {        0.0        0.0    0.00000 }     0.00000
   scf:    9    -6988.017042    -7007.087111    -7007.111502  0.159659 -3.242791 16.391406
     spin moment: {S} , |S| = {        0.0        0.0    0.00000 }     0.00000
   scf:   10    -6998.907866    -7015.397370    -7015.422067  0.194095 -3.194862 10.552865
     spin moment: {S} , |S| = {        0.0        0.0    0.00000 }     0.00000
   scf:   11    -7019.140621    -7018.355623    -7018.381691  0.067184 -3.242707  2.003340
     spin moment: {S} , |S| = {        0.0        0.0    0.00000 }     0.00000
   scf:   12    -7016.919609    -7017.993065    -7018.016494  0.039713 -3.194867  4.989069
     spin moment: {S} , |S| = {        0.0        0.0    0.00000 }     0.00000
   scf:   13    -7018.595193    -7018.449672    -7018.474664  0.022728 -3.254690  1.266636
     spin moment: {S} , |S| = {        0.0        0.0    0.00000 }     0.00000
   scf:   14    -7018.430568    -7018.483137    -7018.508920  0.015062 -3.409415  0.633516
     spin moment: {S} , |S| = {        0.0        0.0    0.00000 }     0.00000
   scf:   15    -7018.495474    -7018.496517    -7018.521941  0.005183 -3.393225  0.095407
     spin moment: {S} , |S| = {        0.0        0.0    0.00000 }     0.00000
   scf:   16    -7018.496751    -7018.496732    -7018.522164  0.000700 -3.396295  0.078266
     spin moment: {S} , |S| = {        0.0        0.0    0.00000 }     0.00000
   scf:   17    -7018.496847    -7018.496798    -7018.522225  0.000197 -3.397104  0.067476
     spin moment: {S} , |S| = {        0.0        0.0    0.00000 }     0.00000
   scf:   18    -7018.497083    -7018.496976    -7018.522373  0.001004 -3.402921  0.060992
     spin moment: {S} , |S| = {        0.0        0.0    0.00000 }     0.00000
   scf:   19    -7018.497107    -7018.497050    -7018.522436  0.000166 -3.404205  0.045574
     spin moment: {S} , |S| = {        0.0        0.0    0.00000 }     0.00000
   scf:   20    -7018.497180    -7018.497123    -7018.522482  0.000262 -3.406701  0.014688
     spin moment: {S} , |S| = {        0.0        0.0    0.00000 }     0.00000
   scf:   21    -7018.497139    -7018.497134    -7018.522485  0.000131 -3.407797  0.018523
     spin moment: {S} , |S| = {        0.0        0.0    0.00000 }     0.00000
   scf:   22    -7018.497132    -7018.497135    -7018.522488  0.000064 -3.407543  0.012366
     spin moment: {S} , |S| = {        0.0        0.0    0.00000 }     0.00000
   scf:   23    -7018.497153    -7018.497144    -7018.522491  0.000173 -3.408775  0.008699
     spin moment: {S} , |S| = {        0.0        0.0    0.00000 }     0.00000
   scf:   24    -7018.497146    -7018.497146    -7018.522490  0.000098 -3.409437  0.010649
     spin moment: {S} , |S| = {        0.0        0.0    0.00000 }     0.00000
   scf:   25    -7018.497146    -7018.497148    -7018.522490  0.000085 -3.410166  0.007667
     spin moment: {S} , |S| = {        0.0        0.0    0.00000 }     0.00000
   scf:   26    -7018.497143    -7018.497146    -7018.522492  0.000055 -3.410191  0.005457
     spin moment: {S} , |S| = {        0.0        0.0    0.00000 }     0.00000
   scf:   27    -7018.497143    -7018.497145    -7018.522492  0.000071 -3.409715  0.001765
     spin moment: {S} , |S| = {        0.0        0.0    0.00000 }     0.00000
   scf:   28    -7018.497145    -7018.497145    -7018.522492  0.000015 -3.409716  0.001161
     spin moment: {S} , |S| = {        0.0        0.0    0.00000 }     0.00000
   scf:   29    -7018.497147    -7018.497146    -7018.522493  0.000032 -3.410009  0.001035
     spin moment: {S} , |S| = {        0.0        0.0    0.00000 }     0.00000
   scf:   30    -7018.497148    -7018.497147    -7018.522493  0.000010 -3.410103  0.000435
     spin moment: {S} , |S| = {        0.0        0.0    0.00000 }     0.00000
   scf:   31    -7018.497148    -7018.497147    -7018.522493  0.000007 -3.410157  0.000562
     spin moment: {S} , |S| = {        0.0        0.0    0.00000 }     0.00000
   scf:   32    -7018.497148    -7018.497148    -7018.522493  0.000006 -3.410182  0.000468
     spin moment: {S} , |S| = {        0.0        0.0    0.00000 }     0.00000
   scf:   33    -7018.497147    -7018.497148    -7018.522493  0.000003 -3.410196  0.000709
     spin moment: {S} , |S| = {        0.0        0.0    0.00000 }     0.00000
   scf:   34    -7018.497147    -7018.497147    -7018.522493  0.000002 -3.410180  0.000625
     spin moment: {S} , |S| = {        0.0        0.0    0.00000 }     0.00000
   scf:   35    -7018.497148    -7018.497148    -7018.522493  0.000003 -3.410177  0.000489
     spin moment: {S} , |S| = {        0.0        0.0    0.00000 }     0.00000
   scf:   36    -7018.497148    -7018.497148    -7018.522493  0.000007 -3.410193  0.000312
     spin moment: {S} , |S| = {        0.0        0.0    0.00000 }     0.00000
   scf:   37    -7018.497147    -7018.497147    -7018.522493  0.000005 -3.410210  0.000449
     spin moment: {S} , |S| = {        0.0        0.0    0.00000 }     0.00000
   scf:   38    -7018.497147    -7018.497147    -7018.522493  0.000006 -3.410180  0.000122
     spin moment: {S} , |S| = {        0.0        0.0    0.00000 }     0.00000
   scf:   39    -7018.497147    -7018.497147    -7018.522493  0.000002 -3.410174  0.000066
     spin moment: {S} , |S| = {        0.0        0.0    0.00000 }     0.00000

SCF Convergence by DM+H criterion
max |DM_out - DM_in|         :     0.0000017551
max |H_out - H_in|      (eV) :     0.0000655686
SCF cycle converged after 39 iterations

Using DM_out to compute the final energy and forces
No. of atoms with KB's overlaping orbs in proc 0. Max # of overlaps:      53     191

siesta: E_KS(eV) =            -7018.4971

siesta: Atomic forces (eV/Ang):
----------------------------------------
   Tot   -0.007246    0.004184    0.057171
----------------------------------------
   Max    1.900382
   Res    0.665189    sqrt( Sum f_i^2 / 3N )
----------------------------------------
   Max    1.900382    constrained

[...]
   49.7050   54.7246   54.8718   59.7373   61.8885   61.9085   63.9319   64.1181   72.5369   76.2043
   78.1414   78.4129   78.5209   84.9082   85.0462  103.6903  104.1955
  15  2  -81.8835  -81.8824  -50.7998  -50.7977  -50.7724  -50.5628  -50.5347  -50.5283  -22.7654  -22.7273
         -13.5737  -10.9355  -10.9024   -8.2739   -8.2524   -8.2346   -7.9876   -6.8368   -6.8165   -5.4395
   -3.4932   -3.4894   -3.4367   -2.1585   -2.1535   -1.1383   -0.2785   -0.2725    0.0562    0.7719
    4.1622    4.1808    8.2790    8.3122    9.6541    9.7269   10.2781   10.2887   12.2161   12.2397
   12.4229   13.9895   17.4425   17.4615   18.3565   18.3748   23.1127   23.1379   23.2300   27.0058
   27.0303   27.5154   27.7545   32.8681   32.8983   33.7925   34.6703   34.9056   34.9674   38.7475
   38.7722   42.8980   42.9639   43.0615   43.0851   43.9887   46.4756   46.5242   49.4564   49.5508
   49.7050   54.7246   54.8718   59.7373   61.8885   61.9085   63.9319   64.1181   72.5369   76.2043
   78.1414   78.4129   78.5209   84.9082   85.0462  103.6903  104.1955
  16  1  -81.8954  -81.8711  -50.8151  -50.7958  -50.7328  -50.5550  -50.5428  -50.5228  -22.8251  -22.7860
         -13.8257  -11.1261  -10.9238   -8.8331   -8.1450   -7.5677   -7.1132   -6.9527   -6.6295   -5.5447
   -4.2949   -3.3974   -2.7624   -2.2721   -2.1172   -1.2223   -1.1740   -0.1311    0.7603    1.1524
    3.3006    3.4167    7.9228    8.0302    9.0003    9.9187   10.9539   11.7743   12.4549   12.7723
   13.6790   14.1914   16.7935   18.0916   18.4735   18.8930   20.4272   23.0604   24.2423   26.2045
   27.2754   29.2078   30.2710   30.4575   32.1977   33.9738   34.2484   34.7395   36.1617   37.4474
   40.2963   41.0621   41.7325   43.6970   43.8287   44.7039   45.7651   46.5507   50.1339   51.2372
   51.7074   54.8439   55.5716   58.9172   62.5084   64.7006   66.9777   67.8891   70.0631   72.1031
   74.0935   83.5130   84.7034   85.4748   90.0124  101.4838  111.5898
  16  2  -81.8954  -81.8711  -50.8151  -50.7958  -50.7328  -50.5550  -50.5428  -50.5228  -22.8251  -22.7860
         -13.8257  -11.1261  -10.9238   -8.8331   -8.1450   -7.5677   -7.1132   -6.9527   -6.6295   -5.5447
   -4.2949   -3.3974   -2.7624   -2.2721   -2.1172   -1.2223   -1.1740   -0.1311    0.7603    1.1524
    3.3006    3.4167    7.9228    8.0302    9.0003    9.9187   10.9539   11.7743   12.4549   12.7723
   13.6790   14.1914   16.7935   18.0916   18.4735   18.8930   20.4272   23.0604   24.2423   26.2045
   27.2754   29.2078   30.2710   30.4575   32.1977   33.9738   34.2484   34.7395   36.1617   37.4474
   40.2963   41.0621   41.7325   43.6970   43.8287   44.7039   45.7651   46.5507   50.1339   51.2372
   51.7074   54.8439   55.5716   58.9172   62.5084   64.7006   66.9777   67.8891   70.0631   72.1031
   74.0935   83.5130   84.7034   85.4748   90.0124  101.4838  111.5898
  17  1  -81.8954  -81.8711  -50.8151  -50.7958  -50.7328  -50.5550  -50.5428  -50.5228  -22.8251  -22.7860
         -13.8257  -11.1261  -10.9238   -8.8331   -8.1450   -7.5677   -7.1132   -6.9527   -6.6295   -5.5447
   -4.2949   -3.3974   -2.7624   -2.2721   -2.1172   -1.2223   -1.1740   -0.1311    0.7603    1.1524
    3.3006    3.4167    7.9228    8.0302    9.0003    9.9187   10.9539   11.7743   12.4549   12.7723
   13.6790   14.1914   16.7935   18.0916   18.4735   18.8930   20.4272   23.0604   24.2423   26.2045
   27.2754   29.2078   30.2710   30.4575   32.1977   33.9738   34.2484   34.7395   36.1617   37.4474
   40.2963   41.0621   41.7325   43.6970   43.8287   44.7039   45.7651   46.5507   50.1339   51.2372
   51.7074   54.8439   55.5716   58.9172   62.5084   64.7006   66.9777   67.8891   70.0631   72.1031
   74.0936   83.5130   84.7034   85.4748   90.0124  101.4839  111.5898
  17  2  -81.8954  -81.8711  -50.8151  -50.7958  -50.7328  -50.5550  -50.5428  -50.5228  -22.8251  -22.7860
         -13.8257  -11.1261  -10.9238   -8.8331   -8.1450   -7.5677   -7.1132   -6.9527   -6.6295   -5.5447
   -4.2949   -3.3974   -2.7624   -2.2721   -2.1172   -1.2223   -1.1740   -0.1311    0.7603    1.1524
    3.3006    3.4167    7.9228    8.0302    9.0003    9.9187   10.9539   11.7743   12.4549   12.7723
   13.6790   14.1914   16.7935   18.0916   18.4735   18.8930   20.4272   23.0604   24.2423   26.2045
   27.2754   29.2078   30.2710   30.4575   32.1977   33.9738   34.2484   34.7395   36.1617   37.4474
   40.2963   41.0621   41.7325   43.6970   43.8287   44.7039   45.7651   46.5507   50.1339   51.2372
   51.7074   54.8439   55.5716   58.9172   62.5084   64.7006   66.9777   67.8891   70.0631   72.1031
   74.0936   83.5130   84.7034   85.4748   90.0124  101.4839  111.5898
  18  1  -81.8948  -81.8714  -50.8154  -50.7975  -50.7320  -50.5524  -50.5450  -50.5232  -22.8232  -22.7842
         -13.8215  -11.1235  -10.9215   -8.8281   -8.1515   -7.5660   -7.1280   -6.9561   -6.6347   -5.5498
   -4.3017   -3.3877   -2.7700   -2.2682   -2.1155   -1.2328   -1.1599   -0.1120    0.7793    1.1434
    3.3084    3.4244    7.9278    8.0401    9.0048    9.9196   10.9447   11.7684   12.4634   12.7644
   13.6765   14.1501   16.7730   18.0566   18.4638   18.8928   20.3969   23.0677   24.2490   26.2112
   27.2820   29.2145   30.2680   30.4604   32.1768   33.9472   34.2492   34.7444   36.1334   37.4037
   40.2683   41.0618   41.7723   43.7662   43.8610   44.6833   45.7655   46.5433   50.2027   51.1884
   51.7145   54.8035   55.5239   58.9549   62.4709   64.6374   67.0738   68.1927   69.9728   71.8911
   74.0004   83.5220   84.7868   85.4363   89.9183  101.3079  111.9065
  18  2  -81.8948  -81.8714  -50.8154  -50.7975  -50.7320  -50.5524  -50.5450  -50.5232  -22.8232  -22.7842
         -13.8215  -11.1235  -10.9215   -8.8281   -8.1515   -7.5660   -7.1280   -6.9561   -6.6347   -5.5498
   -4.3017   -3.3877   -2.7700   -2.2682   -2.1155   -1.2328   -1.1599   -0.1120    0.7793    1.1434
    3.3084    3.4244    7.9278    8.0401    9.0048    9.9196   10.9447   11.7684   12.4634   12.7644
   13.6765   14.1501   16.7730   18.0566   18.4638   18.8928   20.3969   23.0677   24.2490   26.2112
   27.2820   29.2145   30.2680   30.4604   32.1768   33.9472   34.2492   34.7444   36.1334   37.4037
   40.2683   41.0618   41.7723   43.7662   43.8610   44.6833   45.7655   46.5433   50.2027   51.1884
   51.7145   54.8035   55.5239   58.9549   62.4709   64.6374   67.0738   68.1927   69.9728   71.8911
   74.0004   83.5220   84.7868   85.4363   89.9183  101.3079  111.9065
  19  1  -81.8914  -81.8737  -50.8249  -50.8128  -50.7068  -50.5477  -50.5425  -50.5337  -22.8214  -22.7821
         -13.7875  -11.2446  -10.8983   -9.2899   -8.1605   -7.2977   -7.1186   -6.6686   -6.0449   -5.5453
   -5.0256   -3.0785   -2.6130   -2.2883   -2.2438   -1.2546   -1.0719   -0.6879    0.7867    1.8443
    3.3566    3.5578    7.2336    7.2743    8.5266    9.9515    9.9698   12.0965   12.7350   13.1042
   15.1291   15.1814   16.6975   17.4662   18.2257   18.5304   19.6493   22.8785   25.3798   26.8958
   27.7725   28.0248   28.7591   31.4357   31.9561   32.9875   34.0669   35.2609   35.7021   37.4879
   40.4837   40.8769   42.0221   43.6833   43.9270   45.2302   46.5261   46.9151   48.6015   51.7534
   53.1511   54.6526   58.6152   60.3074   63.0838   63.6597   66.4003   67.0073   68.4251   70.6211
   72.1053   81.2446   83.3271   87.2358   94.9168  105.0248  107.0135
  19  2  -81.8914  -81.8737  -50.8249  -50.8128  -50.7068  -50.5477  -50.5425  -50.5337  -22.8214  -22.7821
         -13.7875  -11.2446  -10.8983   -9.2899   -8.1605   -7.2977   -7.1186   -6.6686   -6.0449   -5.5453
   -5.0256   -3.0785   -2.6130   -2.2883   -2.2438   -1.2546   -1.0719   -0.6879    0.7867    1.8443
    3.3566    3.5578    7.2336    7.2743    8.5266    9.9515    9.9698   12.0965   12.7350   13.1042
   15.1291   15.1814   16.6975   17.4662   18.2257   18.5304   19.6493   22.8785   25.3798   26.8958
   27.7725   28.0248   28.7591   31.4357   31.9561   32.9875   34.0669   35.2609   35.7021   37.4879
   40.4837   40.8769   42.0221   43.6833   43.9270   45.2302   46.5261   46.9151   48.6015   51.7534
   53.1511   54.6526   58.6152   60.3074   63.0838   63.6597   66.4003   67.0073   68.4251   70.6211
   72.1053   81.2446   83.3271   87.2358   94.9168  105.0248  107.0135
  20  1  -81.8948  -81.8714  -50.8154  -50.7975  -50.7320  -50.5524  -50.5450  -50.5232  -22.8232  -22.7842
         -13.8215  -11.1235  -10.9215   -8.8281   -8.1515   -7.5660   -7.1280   -6.9561   -6.6347   -5.5498
   -4.3017   -3.3877   -2.7700   -2.2682   -2.1155   -1.2328   -1.1599   -0.1120    0.7793    1.1434
    3.3084    3.4244    7.9278    8.0401    9.0048    9.9196   10.9447   11.7684   12.4634   12.7644
   13.6765   14.1501   16.7730   18.0566   18.4638   18.8928   20.3969   23.0677   24.2490   26.2112
   27.2820   29.2145   30.2680   30.4604   32.1768   33.9472   34.2492   34.7444   36.1334   37.4037
   40.2683   41.0618   41.7723   43.7662   43.8610   44.6833   45.7655   46.5433   50.2027   51.1884
   51.7145   54.8035   55.5239   58.9549   62.4709   64.6374   67.0738   68.1927   69.9728   71.8911
   74.0004   83.5220   84.7868   85.4363   89.9183  101.3079  111.9065
  20  2  -81.8948  -81.8714  -50.8154  -50.7975  -50.7320  -50.5524  -50.5450  -50.5232  -22.8232  -22.7842
         -13.8215  -11.1235  -10.9215   -8.8281   -8.1515   -7.5660   -7.1280   -6.9561   -6.6347   -5.5498
   -4.3017   -3.3877   -2.7700   -2.2682   -2.1155   -1.2328   -1.1599   -0.1120    0.7793    1.1434
    3.3084    3.4244    7.9278    8.0401    9.0048    9.9196   10.9447   11.7684   12.4634   12.7644
   13.6765   14.1501   16.7730   18.0566   18.4638   18.8928   20.3969   23.0677   24.2490   26.2112
   27.2820   29.2145   30.2680   30.4604   32.1768   33.9472   34.2492   34.7444   36.1334   37.4037
   40.2683   41.0618   41.7723   43.7662   43.8610   44.6833   45.7655   46.5433   50.2027   51.1884
   51.7145   54.8035   55.5239   58.9549   62.4709   64.6374   67.0738   68.1927   69.9728   71.8911
   74.0004   83.5220   84.7868   85.4363   89.9183  101.3079  111.9065
  21  1  -81.8954  -81.8711  -50.8151  -50.7958  -50.7328  -50.5550  -50.5428  -50.5228  -22.8251  -22.7860
         -13.8257  -11.1261  -10.9238   -8.8331   -8.1450   -7.5677   -7.1132   -6.9527   -6.6295   -5.5447
   -4.2949   -3.3974   -2.7624   -2.2721   -2.1172   -1.2223   -1.1740   -0.1311    0.7603    1.1524
    3.3006    3.4167    7.9228    8.0302    9.0003    9.9187   10.9539   11.7743   12.4549   12.7723
   13.6790   14.1914   16.7935   18.0916   18.4735   18.8930   20.4272   23.0604   24.2423   26.2045
   27.2754   29.2078   30.2710   30.4575   32.1977   33.9738   34.2484   34.7395   36.1617   37.4474
   40.2963   41.0621   41.7325   43.6970   43.8287   44.7039   45.7651   46.5507   50.1339   51.2372
   51.7074   54.8439   55.5716   58.9172   62.5084   64.7006   66.9777   67.8891   70.0631   72.1031
   74.0936   83.5130   84.7034   85.4748   90.0124  101.4839  111.5898
  21  2  -81.8954  -81.8711  -50.8151  -50.7958  -50.7328  -50.5550  -50.5428  -50.5228  -22.8251  -22.7860
         -13.8257  -11.1261  -10.9238   -8.8331   -8.1450   -7.5677   -7.1132   -6.9527   -6.6295   -5.5447
   -4.2949   -3.3974   -2.7624   -2.2721   -2.1172   -1.2223   -1.1740   -0.1311    0.7603    1.1524
    3.3006    3.4167    7.9228    8.0302    9.0003    9.9187   10.9539   11.7743   12.4549   12.7723
   13.6790   14.1914   16.7935   18.0916   18.4735   18.8930   20.4272   23.0604   24.2423   26.2045
   27.2754   29.2078   30.2710   30.4575   32.1977   33.9738   34.2484   34.7395   36.1617   37.4474
   40.2963   41.0621   41.7325   43.6970   43.8287   44.7039   45.7651   46.5507   50.1339   51.2372
   51.7074   54.8439   55.5716   58.9172   62.5084   64.7006   66.9777   67.8891   70.0631   72.1031
   74.0936   83.5130   84.7034   85.4748   90.0124  101.4839  111.5898
  22  1  -81.8927  -81.8730  -50.8245  -50.8101  -50.7078  -50.5535  -50.5355  -50.5350  -22.8251  -22.7857
         -13.7964  -11.2491  -10.9026   -9.2933   -8.1552   -7.2842   -7.1118   -6.6641   -6.0218   -5.5316
   -5.0264   -3.0781   -2.6072   -2.2985   -2.2457   -1.2455   -1.0934   -0.7112    0.7477    1.8531
    3.3396    3.5393    7.2274    7.2623    8.5233    9.9690    9.9707   12.1213   12.7283   13.0828
   15.1761   15.2149   16.7657   17.5361   18.2048   18.5809   19.6342   22.8549   25.3905   26.8893
   27.7305   28.0901   28.7503   31.4296   31.9107   33.0609   34.1871   35.2776   35.7107   37.4595
   40.4366   41.0021   41.9786   43.6178   43.9267   45.2270   46.3431   47.0589   48.4692   51.6853
   53.2095   54.6634   58.5537   60.4367   62.9477   63.7184   66.2150   66.9559   68.7493   70.3736
   72.0687   81.1074   83.5670   87.3810   95.1950  105.2893  106.7636
  22  2  -81.8927  -81.8730  -50.8245  -50.8101  -50.7078  -50.5535  -50.5355  -50.5350  -22.8251  -22.7857
         -13.7964  -11.2491  -10.9026   -9.2933   -8.1552   -7.2842   -7.1118   -6.6641   -6.0218   -5.5316
   -5.0264   -3.0781   -2.6072   -2.2985   -2.2457   -1.2455   -1.0934   -0.7112    0.7477    1.8531
    3.3396    3.5393    7.2274    7.2623    8.5233    9.9690    9.9707   12.1213   12.7283   13.0828
   15.1761   15.2149   16.7657   17.5361   18.2048   18.5809   19.6342   22.8549   25.3905   26.8893
   27.7305   28.0901   28.7503   31.4296   31.9107   33.0609   34.1871   35.2776   35.7107   37.4595
   40.4366   41.0021   41.9786   43.6178   43.9267   45.2270   46.3431   47.0589   48.4692   51.6853
   53.2095   54.6634   58.5537   60.4367   62.9477   63.7184   66.2150   66.9559   68.7493   70.3736
   72.0687   81.1074   83.5670   87.3810   95.1950  105.2893  106.7636
siesta: Fermi energy =      -2.171146 eV

siesta: Program's energy decomposition (eV):
siesta: Ebs     =     -1224.435365
siesta: Eions   =      9678.753412
siesta: Ena     =      1071.377392
siesta: Ekin    =      3373.743084
siesta: Enl     =      -541.789705
siesta: Eso     =         0.000000
siesta: Edftu   =         0.000000
siesta: DEna    =        52.305787
siesta: DUscf   =         3.302044
siesta: DUext   =         0.000000
siesta: Ex      =     -1229.356178
siesta: Ec      =       -76.199474
siesta: Exc     =     -1305.555652
siesta: EbV     =         0.000000
siesta: eta*DQ  =         0.000000
siesta: Emadel  =         0.000000
siesta: Emeta   =         0.000000
siesta: Emolmec =         0.000000
siesta: Ekinion =         0.000000
siesta: Eharris =     -7025.370463
siesta: Etot    =     -7025.370463
siesta: FreeEng =     -7025.395594

siesta: Final energy (eV):
siesta:  Band Struct. =   -1224.435365
siesta:       Kinetic =    3373.743084
siesta:       Hartree =   29612.981246
siesta:         Edftu =       0.000000
siesta:       Eso     =       0.000000
siesta:    Ext. field =       0.000000
siesta:         Exch. =   -1229.356178
siesta:         Corr. =     -76.199474
siesta:     Bulk bias =       0.000000
siesta:   Exch.-corr. =   -1305.555652
siesta:  Ion-electron =  -62600.015099
siesta:       Ion-ion =   23893.475958
siesta:       Ekinion =       0.000000
siesta: D3 dispersion =       0.000000
siesta:         Total =   -7025.370463
siesta:         Fermi =      -2.171146

siesta: Stress tensor (static) (eV/Ang**3):
siesta:     0.000190    0.000099   -0.000014
siesta:     0.000099    0.000305    0.000008
siesta:    -0.000014    0.000008   -0.000236

siesta: Constrained stress tensor (static) (eV/Ang**3):
siesta:     0.000190    0.000099   -0.000014
siesta:     0.000099    0.000305    0.000008
siesta:    -0.000014    0.000008   -0.000236

siesta: Cell volume =        173.587975 Ang**3

siesta: Pressure (static):
siesta:                Solid            Molecule  Units
siesta:          -0.00000094         -0.00000148  Ry/Bohr**3
siesta:          -0.00008625         -0.00013623  eV/Ang**3
siesta:          -0.13819459         -0.21826098  kBar
(Free)E+ p_basis*V_orbitals  =       -7022.846287
(Free)Eharris+ p_basis*V_orbitals  =       -7022.846287

siesta: Electric dipole (a.u.)  =    0.000001   -0.000001    0.002912
siesta: Electric dipole (Debye) =    0.000002   -0.000001    0.007403

dhscf: Vacuum level (max, mean) =   -0.850836   -0.881898 eV

cite: Please see "Mn2CTx.bib" for an exhaustive BiBTeX file.
cite: Please clearly indicate Siesta version in published work: 5.2.0-12-gaf738a07d
cite: This calculation has made use of the following articles
cite: which are encouraged to be cited in a published work.
        Primary SIESTA paper
          DOI: www.doi.org/10.1088/0953-8984/14/11/302


timer: Elapsed wall time (sec) =     708.056
timer: CPU execution times (sec):

Routine            Calls   Time/call    Tot.time        %
siesta                 1     707.943     707.943   100.00
Setup                  1       0.271       0.271     0.04
bands                  1       0.000       0.000     0.00
KSV_init               1       0.000       0.000     0.00
IterGeom              56      12.635     707.555    99.95
geom_init             56       1.057      59.214     8.36
state_init            56       0.141       7.902     1.12
hsparse               56       0.009       0.498     0.07
overlap               56       0.125       7.021     0.99
Setup_H0              56       0.719      40.238     5.68
naefs                112       0.000       0.015     0.00
dnaefs               112       0.000       0.008     0.00
MolMec               112       0.000       0.000     0.00
kinefsm              112       0.068       7.608     1.07
nlefsm               112       0.248      27.810     3.93
DHSCF_Init            56       0.154       8.648     1.22
DHSCF1                56       0.008       0.427     0.06
InitMesh              56       0.008       0.424     0.06
INITMESH              56       0.000       0.000     0.00
DHSCF2                56       0.147       8.220     1.16
REMESH                56       0.022       1.249     0.18
REORD               6490       0.000       0.605     0.09
PHION                 56       0.104       5.825     0.82
COMM_BSC           11190       0.000       0.744     0.11
POISON              1427       0.005       6.500     0.92
fft                 2854       0.002       5.784     0.82
setup_H             1314       0.198     260.781    36.84
DHSCF               1371       0.214     293.229    41.42
DHSCF3              1371       0.198     271.290    38.32
rhoofd              1371       0.085     116.803    16.50
XC                  1371       0.026      36.072     5.10
GXC-CellXC          1371       0.026      35.747     5.05
gridxc@cellXC       1371       0.026      35.741     5.05
vmat                1370       0.080     109.597    15.48
IterSCF             1258       0.486     610.786    86.28
compute_dm          1258       0.284     356.690    50.38
diagon              1258       0.283     356.227    50.32
c-eigval           55352       0.002     107.951    15.25
c-buildHS          55352       0.001      33.165     4.68
cdiag             110704       0.002     207.660    29.33
cdiag1            110704       0.000      13.916     1.97
cdiag2            110704       0.000      50.872     7.19
cdiag3            110704       0.001     135.873    19.19
c-eigvec           55352       0.003     165.916    23.44
cdiag4             55352       0.000       5.864     0.83
c-buildD           55352       0.001      81.422    11.50
MIXER               1202       0.002       2.551     0.36
PostSCF               56       0.670      37.495     5.30
FINAL_HF              56       0.669      37.463     5.29
DHSCF4                56       0.392      21.937     3.10
dfscf                 56       0.373      20.875     2.95
overfsm               56       0.010       0.565     0.08
writeHSX              56       0.001       0.056     0.01
state_analysis        56       0.000       0.012     0.00
siesta_move           56       0.000       0.004     0.00
Analysis               1       0.116       0.116     0.02
optical                1       0.000       0.000     0.00
  

>> End of run:  20-JAN-2025   5:44:54
Job completed
