<preamble>

<basis_specs>
===============================================================================
N.2                  Z=   7    Mass=  14.007        Charge= 0.17977+309
Lmxo=2 Lmxkb= 1    BasisType=split      Semic=F
L=0  Nsemic=0  Cnfigmx=2
          i=1  nzeta=2  polorb=0  (2s)
            splnorm:   0.15000    
               vcte:    40.000    
               rinn:    3.5464    
               qcoe:    0.0000    
               qyuk:    0.0000    
               qwid:   0.10000E-01
                rcs:    3.9365      2.6143    
            lambdas:    1.0000      1.0000    
L=1  Nsemic=0  Cnfigmx=2
          i=1  nzeta=2  polorb=1  (2p)  (to be polarized perturbatively)
            splnorm:   0.15000    
               vcte:    40.000    
               rinn:    4.3162    
               qcoe:    0.0000    
               qyuk:    0.0000    
               qwid:   0.10000E-01
                rcs:    4.7910      3.1603    
            lambdas:    1.0000      1.0000    
L=2  Nsemic=0  Cnfigmx=3
          i=1  nzeta=0  polorb=0  (3d)  (perturbative polarization orbital) (from 2p)
-------------------------------------------------------------------------------
L=0  Nkbl=1  erefs: 0.17977+309
L=1  Nkbl=1  erefs: 0.17977+309
===============================================================================
</basis_specs>

<pseudopotential_header>
 N  pb nrl pcec
 ONCVPSP-3.2017-10-31Hamann's oncvpsp                        
 2s 2.00  r= 1.21/2p 3.00  r= 1.36/                                     2s:2p:
</pseudopotential_header>
</preamble>
N                             # Symbol
N.2                           # Label
    7                         # Atomic number
     5.00000000000                             # Valence charge
     14.0070000000        # Mass 
     33.1744349393        # Self energy 
   2   5                      # Lmax for basis, no. of nl orbitals 
   1   4                      # Lmax for projectors, no. of nl KB projectors
# PAOs:__________________________
  0  2  1  0  2.000000   #orbital l, n, z, is_polarized, population
 500    0.7888783121698582E-02     3.936502777727592     # npts, delta, cutoff
     0.000000000000000        0.7251296151152367    
    0.7888783121698582E-02    0.7252559406115237    
    0.1577756624339716E-01    0.7256525589835774    
    0.2366634936509575E-01    0.7263121254915604    
    0.3155513248679433E-01    0.7272325553196276    
    0.3944391560849290E-01    0.7284111533325597    
    0.4733269873019149E-01    0.7298447903306846    
    0.5522148185189008E-01    0.7315300782709625    
    0.6311026497358865E-01    0.7334635184020071    
    0.7099904809528723E-01    0.7356416035533917    
    0.7888783121698581E-01    0.7380608650274825    
    0.8677661433868440E-01    0.7407178643777618    
    0.9466539746038298E-01    0.7436091389629552    
    0.1025541805820816        0.7467311161068858    
    0.1104429637037802        0.7500800132545651    
    0.1183317468254787        0.7536517407545863    
    0.1262205299471773        0.7574418205206608    
    0.1341093130688759        0.7614453289224318    
    0.1419980961905745        0.7656568670071916    
    0.1498868793122730        0.7700705565639800    
    0.1577756624339716        0.7746800572677369    
    0.1656644455556702        0.7794785984372318    
    0.1735532286773688        0.7844590187010920    
    0.1814420117990674        0.7896138077380497    
    0.1893307949207660        0.7949351457782107    
    0.1972195780424645        0.8004149382720470    
    0.2051083611641631        0.8060448447033789    
    0.2129971442858617        0.8118163017294209    
    0.2208859274075603        0.8177205415979665    
    0.2287747105292589        0.8237486071471535    
    0.2366634936509575        0.8298913647274654    
    0.2445522767726560        0.8361395162124190    
    0.2524410598943546        0.8424836109903128    
    0.2603298430160532        0.8489140585358811    
    0.2682186261377518        0.8554211419002573    
    0.2761074092594504        0.8619950322546692    
    0.2839961923811489        0.8686258044827228    
    0.2918849755028475        0.8753034537305436    
    0.2997737586245461        0.8820179127802150    
    0.3076625417462447        0.8887590700965839    
    0.3155513248679432        0.8955167883989944    
    0.3234401079896418        0.9022809236191175    
    0.3313288911113405        0.9090413441184675    
    0.3392176742330390        0.9157879500511551    
    0.3471064573547376        0.9225106927676237    
    0.3549952404764362        0.9291995941631680    
    0.3628840235981348        0.9358447658810496    
    0.3707728067198333        0.9424364282848767    
    0.3786615898415319        0.9489649291184462    
    0.3865503729632305        0.9554207617745453    
    0.3944391560849291        0.9617945830971771    
    0.4023279392066277        0.9680772306447930    
    0.4102167223283262        0.9742597393453957    
    0.4181055054500248        0.9803333574780757    
    0.4259942885717234        0.9862895619195575    
    0.4338830716934220        0.9921200725987148    
    0.4417718548151206        0.9978168661069259    
    0.4496606379368192         1.003372188417130    
    0.4575494210585178         1.008778566670038    
    0.4654382041802163         1.014028819991566    
    0.4733269873019149         1.019116069311445    
    0.4812157704236135         1.024033746159046    
    0.4891045535453121         1.028775600418520    
    0.4969933366670106         1.033335707031563    
    0.5048821197887092         1.037708471642216    
    0.5127709029104078         1.041888635184342    
    0.5206596860321064         1.045871277418350    
    0.5285484691538049         1.049651819429805    
    0.5364372522755035         1.053226025108483    
    0.5443260353972021         1.056590001631995    
    0.5522148185189008         1.059740198983993    
    0.5601036016405992         1.062673408542152    
    0.5679923847622979         1.065386760776588    
    0.5758811678839965         1.067877722104188    
    0.5837699510056951         1.070144090949203    
    0.5916587341273937         1.072183993064528    
    0.5995475172490922         1.073995876172174    
    0.6074363003707908         1.075578503984504    
    0.6153250834924894         1.076930949670471    
    0.6232138666141880         1.078052588832935    
    0.6311026497358865         1.078943092064131    
    0.6389914328575851         1.079602417146427    
    0.6468802159792837         1.080030800964677    
    0.6547689991009823         1.080228751194721    
    0.6626577822226809         1.080197037829828    
    0.6705465653443794         1.079936684603414    
    0.6784353484660780         1.079448960361996    
    0.6863241315877766         1.078735370437481    
    0.6942129147094752         1.077797648062392    
    0.7021016978311738         1.076637745865925    
    0.7099904809528723         1.075257827482704    
    0.7178792640745709         1.073660259300068    
    0.7257680471962695         1.071847602363805    
    0.7336568303179681         1.069822604456395    
    0.7415456134396666         1.067588192356416    
    0.7494343965613652         1.065147464282578    
    0.7573231796830638         1.062503682521107    
    0.7652119628047624         1.059660266230922    
    0.7731007459264611         1.056620784417257    
    0.7809895290481595         1.053388949060928    
    0.7888783121698582         1.049968608387646    
    0.7967670952915568         1.046363740259393    
    0.8046558784132554         1.042578445667915    
    0.8125446615349539         1.038616942308993    
    0.8204334446566525         1.034483558215176    
    0.8283222277783511         1.030182725424107    
    0.8362110109000497         1.025718973659518    
    0.8440997940217483         1.021096924002229    
    0.8519885771434468         1.016321282559965    
    0.8598773602651454         1.011396834035417    
    0.8677661433868440         1.006328435108050    
    0.8756549265085426         1.001121008053099    
    0.8835437096302412        0.9957795339827721    
    0.8914324927519397        0.9903090460436110    
    0.8993212758736383        0.9847146224825726    
    0.9072100589953369        0.9790013795731903    
    0.9150988421170355        0.9731744643959431    
    0.9229876252387340        0.9672390474699053    
    0.9308764083604326        0.9612003152358524    
    0.9387651914821312        0.9550634623942380    
    0.9466539746038298        0.9488336841046191    
    0.9545427577255284        0.9425161680563774    
    0.9624315408472269        0.9361160864240093    
    0.9703203239689255        0.9296385877233695    
    0.9782091070906241        0.9230887885884581    
    0.9860978902123227        0.9164717654915245    
    0.9939866733340212        0.9097925464321766    
     1.001875456455720        0.9030561026238229    
     1.009764239577418        0.8962673402085257    
     1.017653022699117        0.8894310920337427    
     1.025541805820816        0.8825521095261242    
     1.033430588942514        0.8756350546995785    
     1.041319372064213        0.8686844923362950    
     1.049208155185911        0.8617048823800662    
     1.057096938307610        0.8547005725824421    
     1.064985721429309        0.8476757914420516    
     1.072874504551007        0.8406346414773365    
     1.080763287672706        0.8335810928728629    
     1.088652070794404        0.8265189775375905    
     1.096540853916103        0.8194519836127530    
     1.104429637037802        0.8123836504647682    
     1.112318420159500        0.8053173641962639    
     1.120207203281198        0.7982563537064072    
     1.128095986402897        0.7912036873277307    
     1.135984769524596        0.7841622700640085    
     1.143873552646294        0.7771348414500480    
     1.151762335767993        0.7701239740502520    
     1.159651118889691        0.7631320726093409    
     1.167539902011390        0.7561613738458204    
     1.175428685133089        0.7492139467713983    
     1.183317468254787        0.7422916944758129    
     1.191206251376486        0.7353963564982050    
     1.199095034498184        0.7285295067650698    
     1.206983817619883        0.7216925579217660    
     1.214872600741582        0.7148867853204119    
     1.222761383863280        0.7081133597838755    
     1.230650166984979        0.7013733791932264    
     1.238538950106677        0.6946678854591067    
     1.246427733228376        0.6879978630334151    
     1.254316516350074        0.6813642376368932    
     1.262205299471773        0.6747678797343792    
     1.270094082593472        0.6682096070578460    
     1.277982865715170        0.6616901864420800    
     1.285871648836869        0.6552103357140389    
     1.293760431958567        0.6487707255614144    
     1.301649215080266        0.6423719813536675    
     1.309537998201965        0.6360146848849770    
     1.317426781323663        0.6296993760654345    
     1.325315564445362        0.6234265545362178    
     1.333204347567060        0.6171966812756258    
     1.341093130688759        0.6110101800966717    
     1.348981913810458        0.6048674391038833    
     1.356870696932156        0.5987688122448784    
     1.364759480053855        0.5927146206183955    
     1.372648263175553        0.5867051539929242    
     1.380537046297252        0.5807406722581235    
     1.388425829418950        0.5748214065683964    
     1.396314612540649        0.5689475607305253    
     1.404203395662348        0.5631193123535285    
     1.412092178784046        0.5573368138466084    
     1.419980961905745        0.5516001935298299    
     1.427869745027443        0.5459095566686851    
     1.435758528149142        0.5402649864102245    
     1.443647311270840        0.5346665447583150    
     1.451536094392539        0.5291142735220330    
     1.459424877514238        0.5236081951903314    
     1.467313660635936        0.5181483137736879    
     1.475202443757635        0.5127346156334571    
     1.483091226879333        0.5073670702779490    
     1.490980010001032        0.5020456311253629    
     1.498868793122730        0.4967702362402895    
     1.506757576244429        0.4915408090432960    
     1.514646359366128        0.4863572589943673    
     1.522535142487826        0.4812194822509984    
     1.530423925609525        0.4761273623017472    
     1.538312708731223        0.4710807705764528    
     1.546201491852922        0.4660795670332750    
     1.554090274974621        0.4611236007240641    
     1.561979058096319        0.4562127103381114    
     1.569867841218018        0.4513467247255729    
     1.577756624339716        0.4465254634009899    
     1.585645407461415        0.4417487370275924    
     1.593534190583114        0.4370163478832964    
     1.601422973704812        0.4323280903086678    
     1.609311756826511        0.4276837511379042    
     1.617200539948209        0.4230831101131238    
     1.625089323069908        0.4185259402827177    
     1.632978106191606        0.4140120083843461    
     1.640866889313305        0.4095410752130536    
     1.648755672435004        0.4051128959751196    
     1.656644455556702        0.4007272206281401    
     1.664533238678401        0.3963837942078328    
     1.672422021800099        0.3920823571420686    
     1.680310804921798        0.3878226455526502    
     1.688199588043497        0.3836043915451180    
     1.696088371165195        0.3794273234872451    
     1.703977154286894        0.3752911662764721    
     1.711865937408592        0.3711956415967125    
     1.719754720530291        0.3671404681650699    
     1.727643503651989        0.3631253619685185    
     1.735532286773688        0.3591500364912357    
     1.743421069895386        0.3552142029327438    
     1.751309853017085        0.3513175704171664    
     1.759198636138784        0.3474598461940961    
     1.767087419260482        0.3436407358311444    
     1.774976202382181        0.3398599433986184    
     1.782864985503879        0.3361171716465950    
     1.790753768625578        0.3324121221745581    
     1.798642551747277        0.3287444955939720    
     1.806531334868975        0.3251139916839866    
     1.814420117990674        0.3215203095405187    
     1.822308901112372        0.3179631477189330    
     1.830197684234071        0.3144422043705861    
     1.838086467355770        0.3109571773734250    
     1.845975250477468        0.3075077644567893    
     1.853864033599167        0.3040936633207777    
     1.861752816720865        0.3007145717502119    
     1.869641599842564        0.2973701877234232    
     1.877530382964262        0.2940602095162014    
     1.885419166085961        0.2907843358008460    
     1.893307949207660        0.2875422657406416    
     1.901196732329358        0.2843336990799686    
     1.909085515451057        0.2811583362300205    
     1.916974298572755        0.2780158783504840    
     1.924863081694454        0.2749060274272959    
     1.932751864816153        0.2718284863464794    
     1.940640647937851        0.2687829589644055    
     1.948529431059550        0.2657691501745323    
     1.956418214181248        0.2627867659706265    
     1.964306997302947        0.2598355135069417    
     1.972195780424645        0.2569151011557752    
     1.980084563546344        0.2540252385598114    
     1.987973346668042        0.2511656366842791    
     1.995862129789741        0.2483360078626286    
     2.003750912911440        0.2455360658495338    
     2.011639696033138        0.2427655258578383    
     2.019528479154837        0.2400241046021608    
     2.027417262276535        0.2373115203274065    
     2.035306045398234        0.2346274928521487    
     2.043194828519933        0.2319717436034395    
     2.051083611641631        0.2293439956462468    
     2.058972394763330        0.2267439737146367    
     2.066861177885028        0.2241714042309426    
     2.074749961006727        0.2216260153633773    
     2.082638744128426        0.2191075370262950    
     2.090527527250124        0.2166157008940513    
     2.098416310371823        0.2141502404310046    
     2.106305093493521        0.2117108909118290    
     2.114193876615220        0.2092973894382095    
     2.122082659736919        0.2069094749539895    
     2.129971442858617        0.2045468882590865    
     2.137860225980316        0.2022093720229626    
     2.145749009102014        0.1998966707966392    
     2.153637792223713        0.1976085310234705    
     2.161526575345412        0.1953447010485549    
     2.169415358467110        0.1931049311270280    
     2.177304141588809        0.1908889734312695    
     2.185192924710507        0.1886965820570832    
     2.193081707832206        0.1865275130288667    
     2.200970490953904        0.1843815243038181    
     2.208859274075603        0.1822583757752284    
     2.216748057197302        0.1801578292748957    
     2.224636840319000        0.1780796485746990    
     2.232525623440698        0.1760235993873649    
     2.240414406562397        0.1739894493664753    
     2.248303189684096        0.1719769681057381    
     2.256191972805794        0.1699859271375572    
     2.264080755927493        0.1680160999309379    
     2.271969539049191        0.1660672618887570    
     2.279858322170890        0.1641391903444249    
     2.287747105292589        0.1622316645579646    
     2.295635888414287        0.1603444657115493    
     2.303524671535986        0.1584773769045097    
     2.311413454657684        0.1566301831478414    
     2.319302237779383        0.1548026713582411    
     2.327191020901082        0.1529946303516913    
     2.335079804022780        0.1512058508366163    
     2.342968587144479        0.1494361254066296    
     2.350857370266177        0.1476852485328999    
     2.358746153387876        0.1459530165561509    
     2.366634936509575        0.1442392276783132    
     2.374523719631273        0.1425436819538508    
     2.382412502752972        0.1408661812807778    
     2.390301285874670        0.1392065293913834    
     2.398190068996369        0.1375645318426810    
     2.406078852118068        0.1359399960065980    
     2.413967635239766        0.1343327310599215    
     2.421856418361465        0.1327425479740136    
     2.429745201483163        0.1311692595043131    
     2.437633984604862        0.1296126801796328    
     2.445522767726561        0.1280726262912691    
     2.453411550848259        0.1265489158819353    
     2.461300333969958        0.1250413687345308    
     2.469189117091656        0.1235498063607546    
     2.477077900213354        0.1220740519895806    
     2.484966683335053        0.1206139305555980    
     2.492855466456752        0.1191692686872328    
     2.500744249578450        0.1177398946948568    
     2.508633032700149        0.1163256385587935    
     2.516521815821847        0.1149263319172318    
     2.524410598943546        0.1135418080540547    
     2.532299382065245        0.1121719018865900    
     2.540188165186943        0.1108164499532943    
     2.548076948308642        0.1094752904013741    
     2.555965731430340        0.1081482629743530    
     2.563854514552039        0.1068352089995929    
     2.571743297673738        0.1055359713757721    
     2.579632080795436        0.1042503945603318    
     2.587520863917135        0.1029783245568922    
     2.595409647038833        0.1017196089026473    
     2.603298430160532        0.1004740966557411    
     2.611187213282231        0.9924163838263346E-01
     2.619075996403929        0.9802208614545883E-01
     2.626964779525628        0.9681529348938200E-01
     2.634853562647326        0.9562111542995683E-01
     2.642742345769025        0.9443940844049235E-01
     2.650631128890724        0.9327003043943019E-01
     2.658519912012422        0.9211284077773561E-01
     2.666408695134121        0.9096770022630733E-01
     2.674297478255819        0.8983447096341120E-01
     2.682186261377518        0.8871301656213948E-01
     2.690075044499217        0.8760320197789906E-01
     2.697963827620915        0.8650489353592844E-01
     2.705852610742614        0.8541795891885597E-01
     2.713741393864312        0.8434226715429174E-01
     2.721630176986011        0.8327768860246308E-01
     2.729518960107709        0.8222409494388622E-01
     2.737407743229408        0.8118135916709372E-01
     2.745296526351106        0.8014935555640253E-01
     2.753185309472805        0.7912795967973665E-01
     2.761074092594503        0.7811704837649260E-01
     2.768962875716202        0.7711649974547088E-01
     2.776851658837901        0.7612619313285773E-01
     2.784740441959599        0.7514600912026399E-01
     2.792629225081298        0.7417582951281970E-01
     2.800518008202996        0.7321553732733663E-01
     2.808406791324695        0.7226501678052928E-01
     2.816295574446394        0.7132415327730129E-01
     2.824184357568092        0.7039283339909000E-01
     2.832073140689791        0.6947094489228281E-01
     2.839961923811489        0.6855837665670257E-01
     2.847850706933188        0.6765501873415755E-01
     2.855739490054887        0.6676076229706100E-01
     2.863628273176585        0.6587549963711474E-01
     2.871517056298284        0.6499912415407738E-01
     2.879405839419982        0.6413153034459471E-01
     2.887294622541681        0.6327261379110649E-01
     2.895183405663380        0.6242227115081347E-01
     2.903072188785078        0.6158040014473997E-01
     2.910960971906777        0.6074689954685624E-01
     2.918849755028475        0.5992166917328225E-01
     2.926738538150174        0.5910460987155716E-01
     2.934627321271873        0.5829562350999216E-01
     2.942516104393571        0.5749461296710231E-01
     2.950404887515270        0.5670148212111002E-01
     2.958293670636968        0.5591613583952700E-01
     2.966182453758667        0.5513847996880013E-01
     2.974071236880365        0.5436842132406208E-01
     2.981960020002064        0.5360586767893840E-01
     2.989848803123762        0.5285072775544373E-01
     2.997737586245461        0.5210291121393890E-01
     3.005626369367159        0.5136232864318334E-01
     3.013515152488858        0.5062889155046180E-01
     3.021403935610557        0.4990251235178671E-01
     3.029292718732255        0.4918310436218002E-01
     3.037181501853954        0.4847058178601629E-01
     3.045070284975652        0.4776485970747734E-01
     3.052959068097351        0.4706585408106070E-01
     3.060847851219050        0.4637348172217717E-01
     3.068736634340748        0.4568766029781193E-01
     3.076625417462447        0.4500830831727334E-01
     3.084514200584145        0.4433534512302673E-01
     3.092402983705844        0.4366869088159464E-01
     3.100291766827543        0.4300826657454312E-01
     3.108180549949241        0.4235399398951997E-01
     3.116069333070940        0.4170579571140646E-01
     3.123958116192638        0.4106359511352626E-01
     3.131846899314337        0.4042731634893394E-01
     3.139735682436036        0.3979688434178090E-01
     3.147624465557734        0.3917222477873836E-01
     3.155513248679433        0.3855326410053322E-01
     3.163402031801131        0.3793992949353321E-01
     3.171290814922830        0.3733214888141792E-01
     3.179179598044529        0.3672985091691220E-01
     3.187068381166227        0.3613296497359766E-01
     3.194957164287926        0.3554142113781542E-01
     3.202845947409624        0.3495515020062617E-01
     3.210734730531323        0.3437408364985380E-01
     3.218623513653021        0.3379815366218016E-01
     3.226512296774720        0.3322729309533595E-01
     3.234401079896418        0.3266143548036310E-01
     3.242289863018117        0.3210051501394004E-01
     3.250178646139815        0.3154446655078965E-01
     3.258067429261514        0.3099322559612861E-01
     3.265956212383213        0.3044672829822577E-01
     3.273844995504911        0.2990491144101597E-01
     3.281733778626610        0.2936771243678099E-01
     3.289622561748308        0.2883506931891254E-01
     3.297511344870007        0.2830692073470718E-01
     3.305400127991706        0.2778320593827949E-01
     3.313288911113404        0.2726386478351996E-01
     3.321177694235103        0.2674883771712092E-01
     3.329066477356801        0.2623806577168201E-01
     3.336955260478500        0.2573149055884491E-01
     3.344844043600199        0.2522905426254632E-01
     3.352732826721897        0.2473069963231022E-01
     3.360621609843596        0.2423636997660896E-01
     3.368510392965294        0.2374600915629861E-01
     3.376399176086993        0.2325956157808722E-01
     3.384287959208692        0.2277697218810891E-01
     3.392176742330390        0.2229818646554507E-01
     3.400065525452089        0.2182315041630685E-01
     3.407954308573787        0.2135181056678911E-01
     3.415843091695486        0.2088411395766210E-01
     3.423731874817185        0.2042000813775285E-01
     3.431620657938883        0.1995944115798474E-01
     3.439509441060582        0.1950236156536942E-01
     3.447398224182280        0.1904871839706690E-01
     3.455287007303979        0.1859846117449277E-01
     3.463175790425677        0.1815153989748819E-01
     3.471064573547376        0.1770790503857015E-01
     3.478953356669074        0.1726750753722025E-01
     3.486842139790773        0.1683029879423659E-01
     3.494730922912472        0.1639623066614645E-01
     3.502619706034170        0.1596525545965228E-01
     3.510508489155869        0.1553732592617926E-01
     3.518397272277567        0.1511239525644724E-01
     3.526286055399266        0.1469041707510595E-01
     3.534174838520965        0.1427134543543307E-01
     3.542063621642663        0.1385513481405472E-01
     3.549952404764362        0.1344174010576630E-01
     3.557841187886060        0.1303111661838083E-01
     3.565729971007759        0.1262322006763491E-01
     3.573618754129457        0.1221800657396238E-01
     3.581507537251156        0.1181543276105774E-01
     3.589396320372855        0.1141545701282291E-01
     3.597285103494553        0.1101804502497976E-01
     3.605173886616252        0.1062318197344182E-01
     3.613062669737950        0.1023088898250325E-01
     3.620951452859649        0.9841238834998394E-02
     3.628840235981348        0.9454366956620991E-02
     3.636729019103046        0.9070476181622534E-02
     3.644617802224745        0.8689835708266659E-02
     3.652506585346443        0.8312775559827828E-02
     3.660395368468142        0.7939678056902903E-02
     3.668284151589841        0.7570967632873298E-02
     3.676172934711539        0.7207100025586597E-02
     3.684061717833238        0.6848551577911364E-02
     3.691950500954936        0.6495809127445117E-02
     3.699839284076635        0.6149360772611818E-02
     3.707728067198333        0.5809687663401083E-02
     3.715616850320032        0.5477256869580552E-02
     3.723505633441730        0.5152515316654698E-02
     3.731394416563429        0.4835884740683959E-02
     3.739283199685128        0.4527757590517056E-02
     3.747171982806826        0.4228493794432676E-02
     3.755060765928525        0.3938418303957753E-02
     3.762949549050223        0.3657819328053228E-02
     3.770838332171922        0.3386947174068709E-02
     3.778727115293621        0.3126013616580477E-02
     3.786615898415319        0.2875191720684722E-02
     3.794504681537018        0.2634616051822222E-02
     3.802393464658716        0.2404383209394893E-02
     3.810282247780415        0.2184552625983648E-02
     3.818171030902114        0.1975147577467057E-02
     3.826059814023812        0.1776156351466048E-02
     3.833948597145511        0.1587533521642435E-02
     3.841837380267209        0.1409201272480200E-02
     3.849726163388908        0.1241050711571973E-02
     3.857614946510607        0.1082943091016181E-02
     3.865503729632305        0.9347108302972941E-03
     3.873392512754004        0.7961581781930137E-03
     3.881281295875702        0.6670612457130613E-03
     3.889170078997401        0.5471669291675388E-03
     3.897058862119099        0.4361897826983080E-03
     3.904947645240798        0.3338048109701322E-03
     3.912836428362497        0.2396312311503895E-03
     3.920725211484195        0.1531928803475049E-03
     3.928613994605894        0.7380108269425155E-04
     3.936502777727592         0.000000000000000    
  0  2  2  0  0.000000   #orbital l, n, z, is_polarized, population
 500    0.5239160305416413E-02     2.614340992402790     # npts, delta, cutoff
     0.000000000000000        0.7111533460860682    
    0.5239160305416413E-02    0.7112425104512821    
    0.1047832061083283E-01    0.7115401736205399    
    0.1571748091624924E-01    0.7120358022462835    
    0.2095664122166565E-01    0.7127286754807590    
    0.2619580152708207E-01    0.7136178251614015    
    0.3143496183249848E-01    0.7147020646738506    
    0.3667412213791489E-01    0.7159800255812335    
    0.4191328244333131E-01    0.7174501969921840    
    0.4715244274874772E-01    0.7191109647135995    
    0.5239160305416413E-01    0.7209606475921455    
    0.5763076335958055E-01    0.7229975288274282    
    0.6286992366499695E-01    0.7252198805457919    
    0.6810908397041338E-01    0.7276259805277938    
    0.7334824427582978E-01    0.7302141206302181    
    0.7858740458124620E-01    0.7329826070776885    
    0.8382656488666261E-01    0.7359297533668454    
    0.8906572519207902E-01    0.7390538669850178    
    0.9430488549749544E-01    0.7423532314664750    
    0.9954404580291185E-01    0.7458260854797477    
    0.1047832061083283        0.7494706006602823    
    0.1100223664137447        0.7532848597896231    