<preamble>

<basis_specs>
===============================================================================
O.3                  Z=   8    Mass=  15.999        Charge= 0.17977+309
Lmxo=2 Lmxkb= 2    BasisType=split      Semic=F
L=0  Nsemic=0  Cnfigmx=2
          i=1  nzeta=2  polorb=0  (2s)
            splnorm:   0.15000    
               vcte:    40.000    
               rinn:    3.1792    
               qcoe:    0.0000    
               qyuk:    0.0000    
               qwid:   0.10000E-01
                rcs:    3.5325      2.2967    
            lambdas:    1.0000      1.0000    
L=1  Nsemic=0  Cnfigmx=2
          i=1  nzeta=2  polorb=1  (2p)  (to be polarized perturbatively)
            splnorm:   0.15000    
               vcte:    40.000    
               rinn:    3.8812    
               qcoe:    0.0000    
               qyuk:    0.0000    
               qwid:   0.10000E-01
                rcs:    4.3082      2.7794    
            lambdas:    1.0000      1.0000    
L=2  Nsemic=0  Cnfigmx=3
          i=1  nzeta=0  polorb=0  (3d)  (perturbative polarization orbital) (from 2p)
-------------------------------------------------------------------------------
L=0  Nkbl=1  erefs: 0.17977+309
L=1  Nkbl=1  erefs: 0.17977+309
L=2  Nkbl=1  erefs: 0.17977+309
===============================================================================
</basis_specs>

<pseudopotential_header>
 O  pb nrl pcec
 ONCVPSP-3.2017-10-31Hamann's oncvpsp                        
 2s 2.00  r= 1.36/2p 4.00  r= 1.46/3d 0.00  r= 1.26/                    2s:2p:
</pseudopotential_header>
</preamble>
O                             # Symbol
O.3                           # Label
    8                         # Atomic number
     6.00000000000                             # Valence charge
     15.9990000000        # Mass 
     48.1918779204        # Self energy 
   2   5                      # Lmax for basis, no. of nl orbitals 
   2   5                      # Lmax for projectors, no. of nl KB projectors
# PAOs:__________________________
  0  2  1  0  2.000000   #orbital l, n, z, is_polarized, population
 500    0.7079137881117544E-02     3.532489802677655     # npts, delta, cutoff
     0.000000000000000         1.377282975529716    
    0.7079137881117544E-02     1.377292254740753    
    0.1415827576223509E-01     1.377360689624940    
    0.2123741364335263E-01     1.377472739471041    
    0.2831655152447018E-01     1.377625672533370    
    0.3539568940558772E-01     1.377816219211281    
    0.4247482728670526E-01     1.378040989856496    
    0.4955396516782281E-01     1.378296866022505    
    0.5663310304894036E-01     1.378581298886779    
    0.6371224093005790E-01     1.378892474196635    
    0.7079137881117545E-01     1.379229332527145    
    0.7787051669229299E-01     1.379591461582053    
    0.8494965457341053E-01     1.379978897954333    
    0.9202879245452808E-01     1.380391885814750    
    0.9910793033564562E-01     1.380830639015522    
    0.1061870682167632         1.381295143290582    
    0.1132662060978807         1.381785020415346    
    0.1203453439789983         1.382299460524960    
    0.1274244818601158         1.382837215717231    
    0.1345036197412333         1.383396639624443    
    0.1415827576223509         1.383975754322457    
    0.1486618955034684         1.384572326989443    
    0.1557410333845860         1.385183942632902    
    0.1628201712657035         1.385808064308574    
    0.1698993091468211         1.386442077167980    
    0.1769784470279386         1.387083316507322    
    0.1840575849090562         1.387729082400260    
    0.1911367227901737         1.388376644556298    
    0.1982158606712912         1.389023241079887    
    0.2052949985524088         1.389666074218548    
    0.2123741364335263         1.390302305345745    
    0.2194532743146439         1.390929050586667    
    0.2265324121957614         1.391543377808164    
    0.2336115500768790         1.392142305208787    
    0.2406906879579965         1.392722801450174    
    0.2477698258391141         1.393281787124711    
    0.2548489637202316         1.393816137308505    
    0.2619281016013492         1.394322684959578    
    0.2690072394824667         1.394798224958665    
    0.2760863773635842         1.395239518633779    
    0.2831655152447018         1.395643298649830    
    0.2902446531258193         1.396006274177007    
    0.2973237910069368         1.396325136275357    
    0.3044029288880544         1.396596563449708    
    0.3114820667691720         1.396817227340009    
    0.3185612046502895         1.396983798519106    
    0.3256403425314071         1.397092952374221    
    0.3327194804125246         1.397141375050936    
    0.3397986182936421         1.397125769439910    
    0.3468777561747597         1.397042861187291    
    0.3539568940558772         1.396889404710079    
    0.3610360319369948         1.396662189197919    
    0.3681151698181123         1.396358044582378    
    0.3751943076992298         1.395973847454591    
    0.3822734455803474         1.395506526911507    
    0.3893525834614650         1.394953070310162    
    0.3964317213425825         1.394310528908559    
    0.4035108592237001         1.393576023370530    
    0.4105899971048176         1.392746749110934    
    0.4176691349859351         1.391819981456433    
    0.4247482728670527         1.390793080596185    
    0.4318274107481702         1.389663496296483    
    0.4389065486292877         1.388428772353326    
    0.4459856865104053         1.387086550758069    
    0.4530648243915228         1.385634575553126    
    0.4601439622726404         1.384070696357700    
    0.4672231001537580         1.382392871547888    
    0.4743022380348755         1.380599171080706    
    0.4813813759159930         1.378687778957732    
    0.4884605137971106         1.376656995331293    
    0.4955396516782281         1.374505238262865    
    0.5026187895593457         1.372231045150913    
    0.5096979274404632         1.369833073851356    
    0.5167770653215807         1.367310103519620    
    0.5238562032026983         1.364661035206809    
    0.5309353410838158         1.361884892244696    
    0.5380144789649334         1.358980820454356    
    0.5450936168460510         1.355948088211117    
    0.5521727547271684         1.352786086394203    
    0.5592518926082860         1.349494328243807    
    0.5663310304894036         1.346072449140417    
    0.5734101683705211         1.342520206313361    
    0.5804893062516386         1.338837478476943    
    0.5875684441327562         1.335024265385364    
    0.5946475820138737         1.331080687291591    
    0.6017267198949913         1.327006984291889    
    0.6088058577761088         1.322803515536660    
    0.6158849956572263         1.318470758289407    
    0.6229641335383439         1.314009306818742    
    0.6300432714194615         1.309419871112397    
    0.6371224093005790         1.304703275406635    
    0.6442015471816965         1.299860456528270    
    0.6512806850628141         1.294892462049524    
    0.6583598229439316         1.289800448257797    
    0.6654389608250492         1.284585677943251    
    0.6725180987061667         1.279249518007454    
    0.6795972365872842         1.273793436896335    
    0.6866763744684018         1.268219001860868    
    0.6937555123495194         1.262527876049901    
    0.7008346502306370         1.256721815440874    
    0.7079137881117544         1.250802665616397    
    0.7149929259928720         1.244772358397200    
    0.7220720638739896         1.238632908476994    
    0.7291512017551071         1.232386410234604    
    0.7362303396362246         1.226035031940573    
    0.7433094775173422         1.219581014330891    
    0.7503886153984597         1.213026665928659    
    0.7574677532795773         1.206374359155360    
    0.7645468911606949         1.199626526424768    
    0.7716260290418123         1.192785656234248    
    0.7787051669229299         1.185854289269732    
    0.7857843048040475         1.178835014539204    
    0.7928634426851650         1.171730465547828    
    0.7999425805662825         1.164543316526278    
    0.8070217184474001         1.157276278722160    
    0.8141008563285176         1.149932096763077    
    0.8211799942096352         1.142513545098242    
    0.8282591320907527         1.135023424524306    
    0.8353382699718702         1.127464558799608    
    0.8424174078529878         1.119839791350154    
    0.8494965457341054         1.112151982069207    
    0.8565756836152228         1.104404004211508    
    0.8636548214963404         1.096598741382312    
    0.8707339593774580         1.088739084620603    
    0.8778130972585755         1.080827929575062    
    0.8848922351396931         1.072868173770950    
    0.8919713730208106         1.064862713965635    
    0.8990505109019281         1.056814443589893    
    0.9061296487830457         1.048726250272036    
    0.9132087866641633         1.040601013441766    
    0.9202879245452807         1.032441602010259    
    0.9273670624263983         1.024250872123186    
    0.9344462003075159         1.016031664983269    
    0.9415253381886334         1.007786804738904    
    0.9486044760697510        0.9995190964356501    
    0.9556836139508685        0.9912313240272953    
    0.9627627518319860        0.9829262484434971    
    0.9698418897131036        0.9746066057110434    
    0.9769210275942212        0.9662751051259475    
    0.9840001654753386        0.9579344274739707    
    0.9910793033564562        0.9495872232969487    
    0.9981584412375738        0.9412361112030602    
     1.005237579118691        0.9328836762188893    
     1.012316716999809        0.9245324681815106    
     1.019395854880926        0.9161850001694414    
     1.026474992762044        0.9078437469705777    
     1.033554130643161        0.8995111435867646    
     1.040633268524279        0.8911895837735135    
     1.047712406405397        0.8828814186146473    
     1.054791544286514        0.8745889551315550    
     1.061870682167632        0.8663144549263263    
     1.068949820048749        0.8580601328597665    
     1.076028957929867        0.8498281557633940    
     1.083108095810984        0.8416206411871304    
     1.090187233692102        0.8334396561822794    
     1.097266371573219        0.8252872161214765    
     1.104345509454337        0.8171652835562212    
     1.111424647335455        0.8090757671133659    
     1.118503785216572        0.8010205204321530    
     1.125582923097689        0.7930013411429727    
     1.132662060978807        0.7850199698902278    
     1.139741198859925        0.7770780894002907    
     1.146820336741042        0.7691773235974949    
     1.153899474622160        0.7613192367692821    
     1.160978612503277        0.7535053327836047    
     1.168057750384395        0.7457370543599737    
     1.175136888265512        0.7380157823971956    
     1.182216026146630        0.7303428353594124    
     1.189295164027747        0.7227194687233266    
     1.196374301908865        0.7151468744886428    
     1.203453439789983        0.7076261807541840    
     1.210532577671100        0.7001584513617550    
     1.217611715552218        0.6927446856099916    
     1.224690853433335        0.6853858180404819    
     1.231769991314453        0.6780827182977958    
     1.238849129195570        0.6708361910656555    
     1.245928267076688        0.6636469760804703    
     1.253007404957805        0.6565157482244349    
     1.260086542838923        0.6494431176987988    
     1.267165680720040        0.6424296302792485    
     1.274244818601158        0.6354757676535683    
     1.281323956482276        0.6285819478430545    
     1.288403094363393        0.6217485257075011    
     1.295482232244511        0.6149757935345844    
     1.302561370125628        0.6082639817134224    
     1.309640508006746        0.6016132594892618    
     1.316719645887863        0.5950237357138477    
     1.323798783768981        0.5884954598612703    
     1.330877921650098        0.5820284236069287    
     1.337957059531216        0.5756225617233582    
     1.345036197412333        0.5692777508654550    
     1.352115335293451        0.5629938105547828    
     1.359194473174568        0.5567705109925147    
     1.366273611055686        0.5506075844931544    
     1.373352748936804        0.5445047377920573    
     1.380431886817921        0.5384616634104827    
     1.387511024699039        0.5324780462192772    
     1.394590162580156        0.5265535629597189    
     1.401669300461274        0.5206878801995642    
     1.408748438342391        0.5148806548822683    
     1.415827576223509        0.5091315354941259    
     1.422906714104627        0.5034401627689991    
     1.429985851985744        0.4978061700968649    
     1.437064989866861        0.4922291840033304    
     1.444144127747979        0.4867088246079917    
     1.451223265629097        0.4812447061589496    
     1.458302403510214        0.4758364374214054    
     1.465381541391332        0.4704836221375194    
     1.472460679272449        0.4651858595051271    
     1.479539817153567        0.4599427446387249    
     1.486618955034684        0.4547538686982501    
     1.493698092915802        0.4496188194565830    
     1.500777230796919        0.4445371816046401    
     1.507856368678037        0.4395085370747464    
     1.514935506559155        0.4345324652745558    
     1.522014644440272        0.4296085434148715    
     1.529093782321390        0.4247363467906271    
     1.536172920202507        0.4199154490429972    
     1.543252058083625        0.4151454224130497    
     1.550331195964742        0.4104258379839017    
     1.557410333845860        0.4057562659129726    
     1.564489471726977        0.4011362756533793    
     1.571568609608095        0.3965654361651855    
     1.578647747489212        0.3920433161168924    
     1.585726885370330        0.3875694840777459    
     1.592806023251448        0.3831435087009220    
     1.599885161132565        0.3787649588981017    
     1.606964299013683        0.3744334040058003    
     1.614043436894800        0.3701484139435287    
     1.621122574775918        0.3659095593644294    
     1.628201712657035        0.3617164117984640    
     1.635280850538153        0.3575685437883854    
     1.642359988419270        0.3534655290190576    
     1.649439126300388        0.3494069424400321    
     1.656518264181505        0.3453923603819191    
     1.663597402062623        0.3414213606673039    
     1.670676539943740        0.3374935227143971    
     1.677755677824858        0.3336084276358428    
     1.684834815705976        0.3297656583302048    
     1.691913953587093        0.3259647995773393    
     1.698993091468211        0.3222054381172898    
     1.706072229349328        0.3184871627320179    
     1.713151367230446        0.3148095643077841    
     1.720230505111563        0.3111722359160953    
     1.727309642992681        0.3075747728785269    
     1.734388780873798        0.3040167728253215    
     1.741467918754916        0.3004978357532661    
     1.748547056636033        0.2970175640737793    
     1.755626194517151        0.2935755627082946    
     1.762705332398269        0.2901714390747078    
     1.769784470279386        0.2868048031543894    
     1.776863608160504        0.2834752675372630    
     1.783942746041621        0.2801824474588002    
     1.791021883922739        0.2769259608335596    
     1.798101021803856        0.2737054282859523    
     1.805180159684974        0.2705204731801303    
     1.812259297566091        0.2673707216471941    
     1.819338435447209        0.2642558026099341    
     1.826417573328327        0.2611753478049594    
     1.833496711209444        0.2581289918026524    
     1.840575849090561        0.2551163720250003    
     1.847654986971679        0.2521371287614280    
     1.854734124852797        0.2491909051826628    
     1.861813262733914        0.2462773473527362    
     1.868892400615032        0.2433961042392120    
     1.875971538496149        0.2405468277217128    
     1.883050676377267        0.2377291725988098    
     1.890129814258384        0.2349427965933727    
     1.897208952139502        0.2321873603564385    
     1.904288090020619        0.2294625274696509    
     1.911367227901737        0.2267679644463693    
     1.918446365782855        0.2241033407314836    
     1.925525503663972        0.2214683287000012    
     1.932604641545090        0.2188626036544715    
     1.939683779426207        0.2162858438212955    
     1.946762917307325        0.2137377303459811    
     1.953842055188442        0.2112179472873850    
     1.960921193069560        0.2087261816110058    
     1.968000330950677        0.2062621231813646    
     1.975079468831795        0.2038254647535192    
     1.982158606712912        0.2014159019637651    
     1.989237744594030        0.1990331333195574    
     1.996316882475148        0.1966768601886955    
     2.003396020356265        0.1943467867878124    
     2.010475158237383        0.1920426201702054    
     2.017554296118500        0.1897640702130410    
     2.024633433999618        0.1875108496039735    
     2.031712571880735        0.1852826738272083    
     2.038791709761853        0.1830792611490422    
     2.045870847642970        0.1809003326029082    
     2.052949985524088        0.1787456119739622    
     2.060029123405205        0.1766148257832321    
     2.067108261286323        0.1745077032713573    
     2.074187399167441        0.1724239763819507    
     2.081266537048558        0.1703633797446024    
     2.088345674929676        0.1683256506575482    
     2.095424812810793        0.1663105290700324    
     2.102503950691911        0.1643177575643795    
     2.109583088573028        0.1623470813378023    
     2.116662226454146        0.1603982481839593    
     2.123741364335263        0.1584710084742894    
     2.130820502216381        0.1565651151391347    
     2.137899640097499        0.1546803236486738    
     2.144978777978616        0.1528163919936823    
     2.152057915859733        0.1509730806661319    
     2.159137053740851        0.1491501526396523    
     2.166216191621968        0.1473473733498620    
     2.173295329503086        0.1455645106745888    
     2.180374467384204        0.1438013349139884    
     2.187453605265321        0.1420576187705788    
     2.194532743146439        0.1403331373291994    
     2.201611881027556        0.1386276680369093    
     2.208691018908674        0.1369409906828323    
     2.215770156789791        0.1352728873779641    
     2.222849294670909        0.1336231425349499    
     2.229928432552026        0.1319915428478401    
     2.237007570433144        0.1303778772718370    
     2.244086708314262        0.1287819370030399    
     2.251165846195379        0.1272035154581957    
     2.258244984076497        0.1256424082544655    
     2.265324121957614        0.1240984131892148    
     2.272403259838732        0.1225713302198305    
     2.279482397719849        0.1210609614435785    
     2.286561535600967        0.1195671110775012    
     2.293640673482084        0.1180895854383681    
     2.300719811363202        0.1166281929226786    
     2.307798949244320        0.1151827439867289    
     2.314878087125437        0.1137530511267456    
     2.321957225006555        0.1123389288590871    
     2.329036362887672        0.1109401937005257    
     2.336115500768789        0.1095566641486090    
     2.343194638649907        0.1081881606621058    
     2.350273776531025        0.1068345056415435    
     2.357352914412142        0.1054955234098348    
     2.364432052293260        0.1041710401930038    
     2.371511190174378        0.1028608841010124    
     2.378590328055495        0.1015648851086880    
     2.385669465936612        0.1002828750367564    
     2.392748603817730        0.9901468753298537E-01
     2.399827741698847        0.9776015805344061E-01
     2.406906879579965        0.9651912384385322E-01
     2.413986017461083        0.9529142392110217E-01
     2.421065155342200        0.9407689905481688E-01
     2.428144293223318        0.9287539174910123E-01
     2.435223431104435        0.9168674622437745E-01
     2.442302568985553        0.9051080839935075E-01
     2.449381706866670        0.8934742587310304E-01
     2.456460844747788        0.8819644790731265E-01
     2.463539982628905        0.8705772540860213E-01
     2.470619120510023        0.8593111091101034E-01
     2.477698258391141        0.8481645855859717E-01
     2.484777396272258        0.8371362408818254E-01
     2.491856534153376        0.8262246481221384E-01
     2.498935672034493        0.8154283960176592E-01
     2.506014809915611        0.8047460886966795E-01
     2.513093947796728        0.7941763455377747E-01
     2.520173085677846        0.7837178010038022E-01
     2.527252223558963        0.7733691044772659E-01
     2.534331361440081        0.7631289200969237E-01
     2.541410499321199        0.7529959265959513E-01
     2.548489637202316        0.7429688171413081E-01
     2.555568775083433        0.7330462991745394E-01
     2.562647912964551        0.7232270942537886E-01
     2.569727050845668        0.7135099378973464E-01
     2.576806188726786        0.7038935794284720E-01
     2.583885326607904        0.6943767818215960E-01
     2.590964464489021        0.6849583215497958E-01
     2.598043602370139        0.6756369884336604E-01
     2.605122740251256        0.6664115854915958E-01
     2.612201878132374        0.6572809287913806E-01
     2.619281016013491        0.6482438473031139E-01
     2.626360153894609        0.6392991827533191E-01
     2.633439291775726        0.6304457894806963E-01
     2.640518429656844        0.6216825342929864E-01
     2.647597567537962        0.6130082963252651E-01
     2.654676705419079        0.6044219668993752E-01
     2.661755843300197        0.5959224493848767E-01
     2.668834981181314        0.5875086590612631E-01
     2.675914119062432        0.5791795229814434E-01
     2.682993256943549        0.5709339798365443E-01
     2.690072394824667        0.5627709798218372E-01
     2.697151532705784        0.5546894845042767E-01
     2.704230670586902        0.5466884666910832E-01
     2.711309808468020        0.5387669102997068E-01
     2.718388946349137        0.5309238102288574E-01
     2.725468084230255        0.5231581722310073E-01
     2.732547222111372        0.5154690127861153E-01
     2.739626359992490        0.5078553589765238E-01
     2.746705497873607        0.5003162483631565E-01
     2.753784635754725        0.4928507288626999E-01
     2.760863773635843        0.4854578586264036E-01
     2.767942911516960        0.4781367059198325E-01
     2.775022049398078        0.4708863490039222E-01
     2.782101187279195        0.4637058760170918E-01
     2.789180325160312        0.4565943848585994E-01
     2.796259463041430        0.4495509830732264E-01
     2.803338600922548        0.4425747877369695E-01
     2.810417738803665        0.4356649253440174E-01
     2.817496876684783        0.4288205316945684E-01
     2.824576014565900        0.4220407517841785E-01
     2.831655152447018        0.4153247396940999E-01
     2.838734290328135        0.4086716584827019E-01
     2.845813428209253        0.4020806800781296E-01
     2.852892566090370        0.3955509851716897E-01
     2.859971703971488        0.3890817631128955E-01
     2.867050841852606        0.3826722118052735E-01
     2.874129979733723        0.3763215376033099E-01
     2.881209117614841        0.3700289552105334E-01
     2.888288255495958        0.3637936875783317E-01
     2.895367393377076        0.3576149658063840E-01
     2.902446531258193        0.3514920290437683E-01
     2.909525669139311        0.3454241243912066E-01
     2.916604807020428        0.3394105068043241E-01
     2.923683944901546        0.3334504389977403E-01
     2.930763082782664        0.3275431913506040E-01
     2.937842220663781        0.3216880418128083E-01
     2.944921358544899        0.3158842758123145E-01
     2.952000496426016        0.3101311861633816E-01
     2.959079634307133        0.3044280729756850E-01
     2.966158772188251        0.2987742435647464E-01
     2.973237910069369        0.2931690123630553E-01
     2.980317047950486        0.2876117008322179E-01
     2.987396185831604        0.2821016373759902E-01
     2.994475323712722        0.2766381572541570E-01
     3.001554461593839        0.2712206024976781E-01
     3.008633599474956        0.2658483218244622E-01
     3.015712737356074        0.2605206705561574E-01
     3.022791875237191        0.2552370105357801E-01
     3.029871013118309        0.2499967100460992E-01
     3.036950150999427        0.2447991437293087E-01
     3.044029288880544        0.2396436925072540E-01
     3.051108426761662        0.2345297435026186E-01
     3.058187564642779        0.2294566899609747E-01
     3.065266702523897        0.2244239311734407E-01
     3.072345840405014        0.2194308724006667E-01
     3.079424978286132        0.2144769247973061E-01
     3.086504116167249        0.2095615053373938E-01
     3.093583254048367        0.2046840367406162E-01
     3.100662391929485        0.1998439473990226E-01
     3.107741529810602        0.1950406713051180E-01
     3.114820667691720        0.1902736479803786E-01
     3.121899805572837        0.1855423224046229E-01
     3.128978943453955        0.1808461449462609E-01
     3.136058081335072        0.1761845712929304E-01
     3.143137219216190        0.1715570623834127E-01
     3.150216357097307        0.1669630843400307E-01
     3.157295494978425        0.1624021084018129E-01
     3.164374632859543        0.1578736108584556E-01
     3.171453770740660        0.1533770729848324E-01
     3.178532908621778        0.1489119809763572E-01
     3.185612046502895        0.1444778258851775E-01
     3.192691184384012        0.1400741035568782E-01
     3.199770322265130        0.1357003145687109E-01
     3.206849460146248        0.1313559643093916E-01
     3.213928598027365        0.1270405666077817E-01
     3.221007735908483        0.1227536706971802E-01
     3.228086873789600        0.1184949451724459E-01
     3.235166011670718        0.1142643228374933E-01
     3.242245149551835        0.1100621663716479E-01
     3.249324287432953        0.1058894063584079E-01
     3.256403425314070        0.1017476235117576E-01
     3.263482563195188        0.9763907004080375E-02
     3.270561701076306        0.9356663924549416E-02
     3.277640838957423        0.8953379769359881E-02
     3.284719976838541        0.8554449420457444E-02
     3.291799114719658        0.8160305739487804E-02
     3.298878252600776        0.7771409051055253E-02
     3.305957390481893        0.7388236951448427E-02
     3.313036528363011        0.7011274819169946E-02
     3.320115666244128        0.6641007240106485E-02
     3.327194804125246        0.6277910445289170E-02
     3.334273942006364        0.5922445782101635E-02
     3.341353079887481        0.5575054190316543E-02
     3.348432217768599        0.5236151624536790E-02
     3.355511355649716        0.4906125348245368E-02
     3.362590493530834        0.4585331017220100E-02
     3.369669631411951        0.4274090468401093E-02
     3.376748769293069        0.3972690132247095E-02
     3.383827907174186        0.3681379990502405E-02
     3.390907045055304        0.3400373006317371E-02
     3.397986182936422        0.3129844958938421E-02
     3.405065320817539        0.2869934620282344E-02
     3.412144458698656        0.2620744215267692E-02
     3.419223596579774        0.2382340111422703E-02
     3.426302734460891        0.2154753685623483E-02
     3.433381872342009        0.1937982316373684E-02
     3.440461010223127        0.1731990447894920E-02
     3.447540148104244        0.1536710666060843E-02
     3.454619285985362        0.1352044713347138E-02
     3.461698423866479        0.1177864345682689E-02
     3.468777561747597        0.1014011889211834E-02
     3.475856699628714        0.8603002706127126E-03
     3.482935837509832        0.7165121296287169E-03
     3.490014975390949        0.5823972802061377E-03
     3.497094113272067        0.4576670173777657E-03
     3.504173251153185        0.3419818420592626E-03
     3.511252389034302        0.2349235886752487E-03
     3.518331526915420        0.1359234556330814E-03
     3.525410664796537        0.4400485131951450E-04
     3.532489802677655         0.000000000000000    
  0  2  2  0  0.000000   #orbital l, n, z, is_polarized, population
 500    0.4602660138348919E-02     2.296727409036111     # npts, delta, cutoff
     0.000000000000000         1.674378730238319    
    0.4602660138348919E-02     1.674373757612550    
    0.9205320276697838E-02     1.674426102473527    
    0.1380798041504676E-01     1.674512760994711    
    0.1841064055339568E-01     1.674632837713163    
    0.2301330069174459E-01     1.674785170515529    
    0.2761596083009351E-01     1.674968391555276    
    0.3221862096844243E-01     1.675181004710223    
    0.3682128110679135E-01     1.675421467227748    
    0.4142394124514027E-01     1.675688268636329    
    0.4602660138348919E-01     1.675980001099121    
    0.5062926152183811E-01     1.676295416519042    
    0.5523192166018703E-01     1.676633467117669    
    0.5983458179853594E-01     1.676993327799724    
    0.6443724193688487E-01     1.677374400226555    
    0.6903990207523378E-01     1.677776300000402    
    0.7364256221358270E-01     1.678198829577797    
    0.7824522235193163E-01     1.678641940393772    
    0.8284788249028054E-01     1.679105688143401    
    0.8745054262862946E-01     1.679590185234121    
    0.9205320276697837E-01     1.680095554132559    
    0.9665586290532729E-01     1.680621884756179    