<preamble>

<basis_specs>
===============================================================================
Ti.1                 Z=  22    Mass=  47.867        Charge= 0.17977+309
Lmxo=2 Lmxkb= 2    BasisType=split      Semic=T
L=0  Nsemic=1  Cnfigmx=4
          i=1  nzeta=1  polorb=0  (3s)  (semicore shell)
            splnorm:   0.15000    
               vcte:    40.000    
               rinn:    2.5573    
               qcoe:    0.0000    
               qyuk:    0.0000    
               qwid:   0.10000E-01
                rcs:    2.8386    
            lambdas:    1.0000    
          i=2  nzeta=2  polorb=0  (4s)  (to be polarized non-perturbatively)
            splnorm:   0.15000    
               vcte:    40.000    
               rinn:    6.8494    
               qcoe:    0.0000    
               qyuk:    0.0000    
               qwid:   0.10000E-01
                rcs:    7.6104      5.6750    
            lambdas:    1.0000      1.0000    
L=1  Nsemic=1  Cnfigmx=4
          i=1  nzeta=1  polorb=0  (3p)  (semicore shell)
            splnorm:   0.15000    
               vcte:    40.000    
               rinn:    2.8672    
               qcoe:    0.0000    
               qyuk:    0.0000    
               qwid:   0.10000E-01
                rcs:    3.1826    
            lambdas:    1.0000    
          i=2  nzeta=1  polorb=0  (4p)  (non-perturbative polarization shell)
            splnorm:   0.15000    
               vcte:    40.000    
               rinn:    6.8562    
               qcoe:    0.0000    
               qyuk:    0.0000    
               qwid:   0.10000E-01
                rcs:    7.6104    
            lambdas:    1.0000    
L=2  Nsemic=0  Cnfigmx=3
          i=1  nzeta=2  polorb=0  (3d)
            splnorm:   0.15000    
               vcte:    40.000    
               rinn:    4.7000    
               qcoe:    0.0000    
               qyuk:    0.0000    
               qwid:   0.10000E-01
                rcs:    5.2222      3.4589    
            lambdas:    1.0000      1.0000    
-------------------------------------------------------------------------------
L=0  Nkbl=2  erefs: 0.17977+309 0.17977+309
L=1  Nkbl=2  erefs: 0.17977+309 0.17977+309
L=2  Nkbl=1  erefs: 0.17977+309
===============================================================================
</basis_specs>

<pseudopotential_header>
 Ti pb nrl pcec
 ONCVPSP-3.2017-10-31Hamann's oncvpsp                        
 3s 2.00  r= 1.36/3p 6.00  r= 1.31/3d 2.00  r= 1.66/                    3s:3p:3d:4s:
</pseudopotential_header>
</preamble>
Ti                            # Symbol
Ti.1                          # Label
   22                         # Atomic number
     12.0000000000                             # Valence charge
     47.8670000000        # Mass 
     177.050889326        # Self energy 
   2   7                      # Lmax for basis, no. of nl orbitals 
   2   6                      # Lmax for projectors, no. of nl KB projectors
# PAOs:__________________________
  0  3  1  0  2.000000   #orbital l, n, z, is_polarized, population
 500    0.5688589533421749E-02     2.838606177177453     # npts, delta, cutoff
     0.000000000000000        0.9509456371110820    
    0.5688589533421749E-02    0.9510265407415792    
    0.1137717906684350E-01    0.9513260645050741    
    0.1706576860026525E-01    0.9518249496662824    
    0.2275435813368699E-01    0.9525226749594041    
    0.2844294766710874E-01    0.9534185249027327    
    0.3413153720053049E-01    0.9545115883143157    
    0.3982012673395224E-01    0.9558007625385270    
    0.4550871626737399E-01    0.9572847590436515    
    0.5119730580079573E-01    0.9589621097462837    
    0.5688589533421749E-01    0.9608311737783601    
    0.6257448486763924E-01    0.9628901444771737    
    0.6826307440106098E-01    0.9651370564006746    
    0.7395166393448273E-01    0.9675697921883052    
    0.7964025346790449E-01    0.9701860891088314    
    0.8532884300132623E-01    0.9729835451621391    
    0.9101743253474798E-01    0.9759596246309258    
    0.9670602206816972E-01    0.9791116630093801    
    0.1023946116015915        0.9824368712677441    
    0.1080832011350132        0.9859323394426902    
    0.1137717906684350        0.9895950395722802    
    0.1194603802018567        0.9934218280199208    
    0.1251489697352785        0.9974094472531637    
    0.1308375592687002         1.001554527160007    
    0.1365261488021220         1.005853585997078    
    0.1422147383355437         1.010303031070862    
    0.1479033278689655         1.014899159255101    
    0.1535919174023872         1.019638157445174    
    0.1592805069358090         1.024516103044228    
    0.1649690964692307         1.029528964566707    
    0.1706576860026525         1.034672602433803    
    0.1763462755360742         1.039942770022454    
    0.1820348650694960         1.045335115016168    
    0.1877234546029177         1.050845181092471    
    0.1934120441363394         1.056468409968761    
    0.1991006336697612         1.062200143816382    
    0.2047892232031829         1.068035628042132    
    0.2104778127366047         1.073970014427268    
    0.2161664022700265         1.079998364606664    
    0.2218549918034482         1.086115653865069    
    0.2275435813368699         1.092316775223233    
    0.2332321708702917         1.098596543784167    
    0.2389207604037134         1.104949701308380    
    0.2446093499371352         1.111370920986981    
    0.2502979394705570         1.117854812382108    
    0.2559865290039787         1.124395926505834    
    0.2616751185374004         1.130988761010583    
    0.2673637080708222         1.137627765466455    
    0.2730522976042439         1.144307346703439    
    0.2787408871376657         1.151021874198967    
    0.2844294766710874         1.157765685493798    
    0.2901180662045092         1.164533091621560    
    0.2958066557379309         1.171318382539448    
    0.3014952452713527         1.178115832549428    
    0.3071838348047744         1.184919705701046    
    0.3128724243381962         1.191724261168247    
    0.3185610138716179         1.198523758593837    
    0.3242496034050397         1.205312463396094    
    0.3299381929384614         1.212084652032796    
    0.3356267824718832         1.218834617218395    
    0.3413153720053049         1.225556673090494    
    0.3470039615387266         1.232245160322005    
    0.3526925510721484         1.238894451175449    
    0.3583811406055701         1.245498954495986    
    0.3640697301389919         1.252053120639659    
    0.3697583196724137         1.258551446333344    
    0.3754469092058354         1.264988479462718    
    0.3811354987392572         1.271358823784534    
    0.3868240882726789         1.277657143559290    
    0.3925126778061007         1.283878168100300    
    0.3982012673395224         1.290016696235062    
    0.4038898568729442         1.296067600674657    
    0.4095784464063659         1.302025832286933    
    0.4152670359397876         1.307886424269041    
    0.4209556254732094         1.313644496214933    
    0.4266442150066311         1.319295258073373    
    0.4323328045400529         1.324834013992032    
    0.4380213940734746         1.330256166043255    
    0.4437099836068964         1.335557217827195    
    0.4493985731403181         1.340732777948068    
    0.4550871626737399         1.345778563359436    
    0.4607757522071617         1.350690402574573    
    0.4664643417405834         1.355464238738245    
    0.4721529312740051         1.360096132556334    
    0.4778415208074269         1.364582265080172    
    0.4835301103408486         1.368918940342607    
    0.4892186998742704         1.373102587843198    
    0.4949072894076921         1.377129764880351    
    0.5005958789411139         1.380997158728416    
    0.5062844684745357         1.384701588658211    
    0.5119730580079573         1.388240007799791    
    0.5176616475413791         1.391609504846578    
    0.5233502370748009         1.394807305600281    
    0.5290388266082227         1.397830774356321    
    0.5347274161416443         1.400677415129715    
    0.5404160056750661         1.403344872721553    
    0.5461045952084879         1.405830933626339    
    0.5517931847419096         1.408133526780584    
    0.5574817742753314         1.410250724153077    
    0.5631703638087531         1.412180741177261    
    0.5688589533421748         1.413921937026167    
    0.5745475428755966         1.415472814730234    
    0.5802361324090184         1.416832021138483    
    0.5859247219424401         1.417998346723272    
    0.5916133114758618         1.418970725229038    
    0.5973019010092836         1.419748233165467    
    0.6029904905427054         1.420330089145609    
    0.6086790800761271         1.420715653069744    
    0.6143676696095488         1.420904425156124    
    0.6200562591429706         1.420896044820123    
    0.6257448486763924         1.420690289403927    
    0.6314334382098141         1.420287072759600    
    0.6371220277432359         1.419686443689099    
    0.6428106172766576         1.418888584245758    
    0.6484992068100793         1.417893807902769    
    0.6541877963435011         1.416702557595136    
    0.6598763858769229         1.415315403642726    
    0.6655649754103445         1.413733041562951    
    0.6712535649437663         1.411956289782561    
    0.6769421544771881         1.409986087258855    
    0.6826307440106099         1.407823491021101    
    0.6883193335440316         1.405469673643324    
    0.6940079230774533         1.402925920659662    
    0.6996965126108751         1.400193627933186    
    0.7053851021442968         1.397274298988427    
    0.7110736916777186         1.394169542316872    
    0.7167622812111403         1.390881068663401    
    0.7224508707445620         1.387410688300149    
    0.7281394602779838         1.383760308292333    
    0.7338280498114056         1.379931929758829    
    0.7395166393448274         1.375927645128364    
    0.7452052288782490         1.371749635390304    
    0.7508938184116708         1.367400167337404    
    0.7565824079450926         1.362881590796605    
    0.7622709974785143         1.358196335842931    
    0.7679595870119360         1.353346909991065    
    0.7736481765453578         1.348335897098851    
    0.7793367660787796         1.343165956389169    
    0.7850253556122013         1.337839803344525    
    0.7907139451456231         1.332360226488660    
    0.7964025346790448         1.326730077283143    
    0.8020911242124665         1.320952267058151    
    0.8077797137458883         1.315029763946613    
    0.8134683032793101         1.308965589783971    
    0.8191568928127317         1.302762816979229    
    0.8248454823461535         1.296424565364229    
    0.8305340718795753         1.289953999029227    
    0.8362226614129971         1.283354323153417    
    0.8419112509464188         1.276628780839399    
    0.8475998404798405         1.269780649960515    
    0.8532884300132623         1.262813240029555    
    0.8589770195466840         1.255729889096729    
    0.8646656090801058         1.248533960683871    
    0.8703541986135276         1.241228840760979    
    0.8760427881469492         1.233817934770051    
    0.8817313776803710         1.226304664700242    
    0.8874199672137928         1.218692466217361    
    0.8931085567472146         1.210984785849912    
    0.8987971462806362         1.203185078233137    
    0.9044857358140580         1.195296803411920    
    0.9101743253474798         1.187323424202966    
    0.9158629148809015         1.179268403616277    
    0.9215515044143233         1.171135202335861    
    0.9272400939477450         1.162927276259256    
    0.9329286834811668         1.154648074095632    
    0.9386172730145885         1.146301035021912    
    0.9443058625480103         1.137889586396661    
    0.9499944520814320         1.129417141531214    
    0.9556830416148537         1.120887097517849    
    0.9613716311482755         1.112302833114486    
    0.9670602206816973         1.103667706685743    
    0.9727488102151191         1.094985054199862    
    0.9784373997485407         1.086258187281353    
    0.9841259892819625         1.077490391318842    
    0.9898145788153843         1.068684923627910    
    0.9955031683488060         1.059845011668376    
     1.001191757882228         1.050973851315805    
     1.006880347415650         1.042074605186598    
     1.012568936949071         1.033150401016386    
     1.018257526482493         1.024204330091061    
     1.023946116015915         1.015239445730119    
     1.029634705549336         1.006258761821618    
     1.035323295082758        0.9972652514083581    
     1.041011884616180        0.9882618453246471    
     1.046700474149602        0.9792514308831503    
     1.052389063683024        0.9702368506112845    
     1.058077653216445        0.9612209010365805    
     1.063766242749867        0.9522063315205563    
     1.069454832283289        0.9431958431404799    
     1.075143421816710        0.9341920876186902    
     1.080832011350132        0.9251976662988085    
     1.086520600883554        0.9162151291685902    
     1.092209190416976        0.9072469739288247    
     1.097897779950398        0.8982956451079979    
     1.103586369483819        0.8893635332222919    
     1.109274959017241        0.8804529739806041    
     1.114963548550663        0.8715662475343421    
     1.120652138084084        0.8627055777716059    
     1.126340727617506        0.8538731316556732    
     1.132029317150928        0.8450710186074274    
     1.137717906684350        0.8363012899317026    
     1.143406496217771        0.8275659382873237    
     1.149095085751193        0.8188668972007452    
     1.154783675284615        0.8102060406232793    
     1.160472264818037        0.8015851825317465    
     1.166160854351459        0.7930060765726752    
     1.171849443884880        0.7844704157499278    
     1.177538033418302        0.7759798321558479    
     1.183226622951724        0.7675358967459714    
     1.188915212485145        0.7591401191573173    
     1.194603802018567        0.7507939475703722    
     1.200292391551989        0.7424987686148193    
     1.205980981085411        0.7342559073191220    
     1.211669570618833        0.7260666271040388    
     1.217358160152254        0.7179321298201701    
     1.223046749685676        0.7098535558295602    
     1.228735339219098        0.7018319841314998    
     1.234423928752519        0.6938684325325234    
     1.240112518285941        0.6859638578606249    
     1.245801107819363        0.6781191562237951    
     1.251489697352785        0.6703351633127621    
     1.257178286886206        0.6626126547481532    
     1.262866876419628        0.6549523464713547    
     1.268555465953050        0.6473548951771217    
     1.274244055486472        0.6398208987986811    
     1.279932645019893        0.6323508970253048    
     1.285621234553315        0.6249453718636178    
     1.291309824086737        0.6176047482600294    
     1.296998413620159        0.6103293947487586    
     1.302687003153580        0.6031196241383470    
     1.308375592687002        0.5959756942273594    
     1.314064182220424        0.5888978086012500    
     1.319752771753846        0.5818861172791588    
     1.325441361287268        0.5749407177607907    
     1.331129950820689        0.5680616562340337    
     1.336818540354111        0.5612489289229600    
     1.342507129887533        0.5545024813780061    
     1.348195719420954        0.5478222082092281    
     1.353884308954376        0.5412079546923451    
     1.359572898487798        0.5346595226477068    
     1.365261488021220        0.5281766776045315    
     1.370950077554641        0.5217591565845801    
     1.376638667088063        0.5154066761206675    
     1.382327256621485        0.5091189393657981    
     1.388015846154907        0.5028956400341729    
     1.393704435688328        0.4967364620717815    
     1.399393025221750        0.4906410783115494    
     1.405081614755172        0.4846091500222120    
     1.410770204288594        0.4786403280125154    
     1.416458793822015        0.4727342535574985    
     1.422147383355437        0.4668905590523301    
     1.427835972888859        0.4611088683802209    
     1.433524562422281        0.4553887973869133    
     1.439213151955702        0.4497299543495127    
     1.444901741489124        0.4441319404339337    
     1.450590331022546        0.4385943501333243    
     1.456278920555968        0.4331167716909308    
     1.461967510089389        0.4276987875079695    
     1.467656099622811        0.4223399745370680    
     1.473344689156233        0.4170399046616154    
     1.479033278689655        0.4117981450615166    
     1.484721868223076        0.4066142585657453    
     1.490410457756498        0.4014878039921633    
     1.496099047289920        0.3964183364749804    
     1.501787636823342        0.3914054077802583    
     1.507476226356763        0.3864485666098291    
     1.513164815890185        0.3815473588940264    
     1.518853405423607        0.3767013280735454    
     1.524541994957029        0.3719100153707704    
     1.530230584490450        0.3671729600509755    
     1.535919174023872        0.3624896996736459    
     1.541607763557294        0.3578597703342030    
     1.547296353090716        0.3532827068965787    
     1.552984942624137        0.3487580432167897    
     1.558673532157559        0.3442853123577972    
     1.564362121690981        0.3398640467960456    
     1.570050711224403        0.3354937786198340    
     1.575739300757824        0.3311740397197802    
     1.581427890291246        0.3269043619716608    
     1.587116479824668        0.3226842774118930    
     1.592805069358090        0.3185133184057999    
     1.598493658891511        0.3143910178088941    
     1.604182248424933        0.3103169091216098    
     1.609870837958355        0.3062905266378695    
     1.615559427491777        0.3023114055847739    
     1.621248017025198        0.2983790822603289    
     1.626936606558620        0.2944930941654145    
     1.632625196092042        0.2906529801240106    
     1.638313785625463        0.2868582803990233    
     1.644002375158885        0.2831085368091966    
     1.649690964692307        0.2794032928250650    
     1.655379554225729        0.2757420937096484    
     1.661068143759151        0.2721244865783068    
     1.666756733292572        0.2685500205029344    
     1.672445322825994        0.2650182465968157    
     1.678133912359416        0.2615287180998250    
     1.683822501892838        0.2580809904618848    
     1.689511091426259        0.2546746214275811    
     1.695199680959681        0.2513091710601820    
     1.700888270493103        0.2479842018543688    
     1.706576860026525        0.2446992787815243    
     1.712265449559946        0.2414539693578537    
     1.717954039093368        0.2382478437015315    
     1.723642628626790        0.2350804745754365    
     1.729331218160212        0.2319514374407716    
     1.735019807693633        0.2288603105068744    
     1.740708397227055        0.2258066747726883    
     1.746396986760477        0.2227901140678160    
     1.752085576293898        0.2198102150907085    
     1.757774165827320        0.2168665674440563    
     1.763462755360742        0.2139587636676638    
     1.769151344894164        0.2110863992687960    
     1.774839934427586        0.2082490727501012    
     1.780528523961007        0.2054463856352745    
     1.786217113494429        0.2026779424925060    
     1.791905703027851        0.1999433509557676    
     1.797594292561272        0.1972422217440035    
     1.803282882094694        0.1945741686783918    
     1.808971471628116        0.1919388086976637    
     1.814660061161538        0.1893357618715807    
     1.820348650694960        0.1867646514126158    
     1.826037240228381        0.1842251036859683    
     1.831725829761803        0.1817167482179087    
     1.837414419295225        0.1792392177025477    
     1.843103008828647        0.1767921480070805    
     1.848791598362068        0.1743751781755827    
     1.854480187895490        0.1719879504313896    
     1.860168777428912        0.1696301101781353    
     1.865857366962334        0.1673013059994916    
     1.871545956495755        0.1650011896576626    
     1.877234546029177        0.1627294160906875    
     1.882923135562599        0.1604856434086052    
     1.888611725096021        0.1582695328885168    
     1.894300314629442        0.1560807489685937    
     1.899988904162864        0.1539189592410841    
     1.905677493696286        0.1517838344443626    
     1.911366083229707        0.1496750484540550    
     1.917054672763129        0.1475922782732750    
     1.922743262296551        0.1455352040220301    
     1.928431851829973        0.1435035089258302    
     1.934120441363395        0.1414968793035268    
     1.939809030896816        0.1395150045544186    
     1.945497620430238        0.1375575771446732    
     1.951186209963660        0.1356242925930903    
     1.956874799497081        0.1337148494562400    
     1.962563389030503        0.1318289493130040    
     1.968251978563925        0.1299662967485577    
     1.973940568097347        0.1281265993378248    
     1.979629157630769        0.1263095676284295    
     1.985317747164190        0.1245149151231718    
     1.991006336697612        0.1227423582620622    
     1.996694926231034        0.1209916164039358    
     2.002383515764456        0.1192624118076707    
     2.008072105297877        0.1175544696130491    
     2.013760694831299        0.1158675178212672    
     2.019449284364721        0.1142012872751320    
     2.025137873898143        0.1125555116389423    
     2.030826463431564        0.1109299273781243    
     2.036515052964986        0.1093242737385946    
     2.042203642498408        0.1077382927259032    
     2.047892232031829        0.1061717290841265    
     2.053580821565251        0.1046243302746131    
     2.059269411098673        0.1030958464545293    
     2.064958000632095        0.1015860304552508    
     2.070646590165516        0.1000946377605938    
     2.076335179698938        0.9862142648493163E-01
     2.082023769232360        0.9716615735121516E-01
     2.087712358765782        0.9572859366887633E-01
     2.093400948299204        0.9430850131165587E-01
     2.099089537832625        0.9290564869532977E-01
     2.104778127366047        0.9151980675543733E-01
     2.110466716899469        0.9015074892492227E-01
     2.116155306432891        0.8879825111175700E-01
     2.121843895966312        0.8746209167650849E-01
     2.127532485499734        0.8614205140993515E-01
     2.133221075033156        0.8483791351056032E-01
     2.138909664566577        0.8354946356225024E-01
     2.144598254099999        0.8227648951179500E-01
     2.150286843633421        0.8101878164650703E-01
     2.155975433166843        0.7977613257190173E-01
     2.161664022700264        0.7854833718937400E-01
     2.167352612233686        0.7733519267411222E-01
     2.173041201767108        0.7613649845232597E-01
     2.178729791300530        0.7495205617948537E-01
     2.184418380833951        0.7378166971809999E-01
     2.190106970367373        0.7262514511549453E-01
     2.195795559900795        0.7148229058170001E-01
     2.201484149434217        0.7035291646895867E-01
     2.207172738967639        0.6923683524814840E-01
     2.212861328501060        0.6813386148757915E-01
     2.218549918034482        0.6704381183110021E-01
     2.224238507567904        0.6596650497693081E-01
     2.229927097101326        0.6490176165604492E-01
     2.235615686634747        0.6384940461086099E-01
     2.241304276168169        0.6280925857422270E-01
     2.246992865701591        0.6178115025156372E-01
     2.252681455235012        0.6076490828879194E-01
     2.258370044768434        0.5976036326141788E-01
     2.264058634301856        0.5876734765045635E-01
     2.269747223835278        0.5778569581899240E-01
     2.275435813368699        0.5681524398963445E-01
     2.281124402902121        0.5585583024780065E-01
     2.286812992435543        0.5490729448928708E-01
     2.292501581968965        0.5396947841138876E-01
     2.298190171502386        0.5304222549293296E-01
     2.303878761035808        0.5212538097494647E-01
     2.309567350569230        0.5121879184091509E-01
     2.315255940102652        0.5032230679642197E-01
     2.320944529636074        0.4943577624919492E-01
     2.326633119169495        0.4855905228921805E-01
     2.332321708702917        0.4769198866882242E-01
     2.338010298236339        0.4683444078308756E-01
     2.343698887769760        0.4598626565048487E-01
     2.349387477303182        0.4514732189353556E-01
     2.355076066836604        0.4431746971957284E-01
     2.360764656370026        0.4349657090165879E-01
     2.366453245903447        0.4268448875954528E-01
     2.372141835436869        0.4188108814074672E-01
     2.377830424970291        0.4108623540174033E-01
     2.383519014503713        0.4029979838926820E-01
     2.389207604037134        0.3952164642177839E-01
     2.394896193570556        0.3875165027094043E-01
     2.400584783103978        0.3798968214328834E-01
     2.406273372637400        0.3723561566197808E-01
     2.411961962170821        0.3648932584864768E-01
     2.417650551704243        0.3575068910541792E-01
     2.423339141237665        0.3501958319697226E-01
     2.429027730771087        0.3429588723276516E-01
     2.434716320304509        0.3357948164934596E-01
     2.440404909837930        0.3287024819279118E-01
     2.446093499371352        0.3216806990127354E-01
     2.451782088904773        0.3147283108772116E-01
     2.457470678438195        0.3078441732260036E-01
     2.463159267971617        0.3010271541681935E-01
     2.468847857505039        0.2942761340474478E-01
     2.474536447038461        0.2875900052734663E-01
     2.480225036571882        0.2809676721545514E-01
     2.485913626105304        0.2744080507312517E-01
     2.491602215638726        0.2679100686113329E-01
     2.497290805172148        0.2614726648058941E-01
     2.502979394705569        0.2550947895666918E-01
     2.508667984238991        0.2487754042247758E-01
     2.514356573772413        0.2425134810300696E-01
     2.520045163305835        0.2363080029923636E-01
     2.525733752839256        0.2301579637234495E-01
     2.531422342372678        0.2240623672804481E-01
     2.537110931906100        0.2180202280105225E-01
     2.542799521439522        0.2120305703965153E-01
     2.548488110972944        0.2060924289039917E-01
     2.554176700506365        0.2002048478294461E-01
     2.559865290039787        0.1943668811497072E-01
     2.565553879573208        0.1885775923726664E-01
     2.571242469106630        0.1828360543890841E-01
     2.576931058640052        0.1771413493445454E-01
     2.582619648173474        0.1714925695754019E-01
     2.588308237706896        0.1658888306676791E-01
     2.593996827240317        0.1603293295774395E-01
     2.599685416773739        0.1548134725164035E-01
     2.605374006307161        0.1493410488756390E-01
     2.611062595840583        0.1439123985329683E-01
     2.616751185374004        0.1385285309439099E-01
     2.622439774907426        0.1331911800896209E-01
     2.628128364440848        0.1279027991776336E-01
     2.633816953974270        0.1226665085064034E-01
     2.639505543507692        0.1174860119504788E-01
     2.645194133041113        0.1123654957667223E-01
     2.650882722574535        0.1073095203530415E-01
     2.656571312107956        0.1023229124971778E-01
     2.662259901641378        0.9741066305293485E-02
     2.667948491174800        0.9257783299463009E-02
     2.673637080708222        0.8782946937446013E-02
     2.679325670241643        0.8317053173179292E-02
     2.685014259775065        0.7860582886666440E-02
     2.690702849308487        0.7413996549573779E-02
     2.696391438841909        0.6977729808324855E-02
     2.702080028375331        0.6552189902722439E-02
     2.707768617908752        0.6137752834254267E-02
     2.713457207442174        0.5734761198980099E-02
     2.719145796975596        0.5343522603354843E-02
     2.724834386509018        0.4964308586200516E-02
     2.730522976042439        0.4597353975412283E-02
     2.736211565575861        0.4242856613290437E-02
     2.741900155109283        0.3900977389105897E-02
     2.747588744642705        0.3571840521286442E-02
     2.753277334176127        0.3255534034003731E-02
     2.758965923709548        0.2952110373382701E-02
     2.764654513242970        0.2661587106180191E-02
     2.770343102776391        0.2383947637172747E-02
     2.776031692309813        0.2119141868121856E-02
     2.781720281843235        0.1867086696548015E-02
     2.787408871376657        0.1627666208018904E-02
     2.793097460910078        0.1400731334161095E-02
     2.798786050443500        0.1186098594227278E-02
     2.804474639976922        0.9835472298696626E-03
     2.810163229510344        0.7928133825740541E-03
     2.815851819043766        0.6135784105914605E-03
     2.821540408577187        0.4454443018911150E-03
     2.827228998110609        0.2878759412233091E-03
     2.832917587644031        0.1400342337089517E-03
     2.838606177177453         0.000000000000000    
  0  4  1  0  2.000000   #orbital l, n, z, is_polarized, population
 500    0.1525131714739566E-01     7.610407256550433     # npts, delta, cutoff
     0.000000000000000        0.3739180617395327    
    0.1525131714739566E-01    0.3741309044902761    
    0.3050263429479131E-01    0.3747894595625462    