Executable      : siesta
Version         : 5.2.0-12-gaf738a07d
Architecture    : x86_64
Compiler version: GNU-13.2.0
Compiler flags  : -fallow-argument-mismatch -O3 -march=native
Parallelisations: MPI
Native ELPA support
ELSI support. Solvers:
   ELPA (internal) 
   NTPoly
   OMM
DFT-D3 support

Runtime information:
* Directory : /media/hakan/New Volume1/dftLiteratur/malzemeML/mxene_project/results/dft/stability
* Running in serial mode (only 1 MPI rank).
>> Start of run:  20-JAN-2025   4:12:01

                           *********************** 
                           *  WELCOME TO SIESTA  * 
                           *********************** 

 NOTE: Siesta V5 introduces some new defaults for basis-set generation
 NOTE: which might lead to slightly different numerical results.
 NOTE: Please see the manual for full details and compatibility measures.


reinit: Reading from standard input
reinit: Dumping input in INPUT_TMP.94284
************************** Dump of input data file ****************************
SystemName	Ti2CTx
SystemLabel	Ti2CTx
DM.InitialSpinPol	0.2
DM.MixingWeight	0.1
DM.NumberPulay	5
DM.Tolerance	1.0E-4
DM.UseSaveDM	True
ElectronicTemperature	300 K
MD.ConstantVolume	False
MD.MaxForceTol	0.04 eV/Ang
MD.MaxStressTol	1.0 GPa
MD.NumCGsteps	100
MD.TypeOfRun	CG
MD.VariableCell	True
MaxSCFIterations	200
PAO.BasisSize	DZP
PAO.EnergyShift	0.01 Ry
PAO.SoftDefault	True
PAO.SplitNorm	0.15
SCF.DM.Tolerance	1.0E-4
SCF.EDM.Tolerance	1.0E-4 eV
SCF.H.Tolerance	1.0E-4 eV
SaveDeltaRho	True
SaveElectrostaticPotential	True
SaveRho	True
SolutionMethod	diagon
WriteDenchar	True
WriteEigenvalues	True
XC.functional	GGA
XML.Write	True
SCFMustConverge	True
Spin	polarized
XC.functional	GGA
XC.authors	PW91
MeshCutoff	2040.8539518275434	eV
PAO.EnergyShift	0.01	eV
NumberOfSpecies	4
NumberOfAtoms	7
%block ChemicalSpecieslabel
    1 22 Ti.1 Ti.1.psml
    2 6 C.2 C.2.psml
    3 8 O.3 O.3.psml
    4 1 H.4 H.4.psml
%endblock ChemicalSpecieslabel
%block PAO.BasisSizes
    Ti.1	DZP
    C.2	DZP
    O.3	DZP
    H.4	DZP
%endblock PAO.BasisSizes
LatticeConstant	1.0 Ang
%block LatticeVectors
    3.2 0.0 0.0
    -1.6 2.7712812921102037 0.0
    0.0 0.0 25.0
%endblock LatticeVectors
AtomicCoordinatesFormat	Ang
%block AtomicCoordinatesAndAtomicSpecies
    -1.480297366166875e-17 1.8475208614068024 10.0 1
    1.5999999999999999 0.9237604307034012 11.25 1
    0.0 0.0 12.5 2
    -1.480297366166875e-17 1.8475208614068024 13.750000000000002 3
    1.5999999999999999 0.9237604307034012 8.75 3
    -1.480297366166875e-17 1.8475208614068024 15.0 4
    1.5999999999999999 0.9237604307034012 7.5 4
%endblock AtomicCoordinatesAndAtomicSpecies
%block DM.InitSpin
%endblock DM.InitSpin
#KPoint grid
%block kgrid_Monkhorst_Pack
     6       0       0  0.0
     0       6       0  0.0
     0       0       1  0.0
%endblock kgrid_Monkhorst_Pack
************************** End of input data file *****************************
*** WARNING:  FDF module: fdf_read: block DM.InitSpin is empty...

reinit: -----------------------------------------------------------------------
reinit: System Name: Ti2CTx
reinit: -----------------------------------------------------------------------
reinit: System Label: Ti2CTx
reinit: -----------------------------------------------------------------------

NOTE on units for spin output: 
{S} is the spin magnetic moment, in units of the Bohr magneton,
assuming a g-factor for the electron spin of exactly 2.
The spin magnetic moment is then numerically equal to the charge inbalance,
in units of electrons, between the spin-up and -down channels.


initatom: Reading input for the pseudopotentials and atomic orbitals ----------
Species number:   1 Atomic number:   22 Label: Ti.1
Species number:   2 Atomic number:    6 Label: C.2
Species number:   3 Atomic number:    8 Label: O.3
Species number:   4 Atomic number:    1 Label: H.4

Ground state valence configuration (from tables):   4s02  4p00  3d02  4f00
Ground state valence configuration (from tables):   2s02  2p02  3d00  4f00
Ground state valence configuration (from tables):   2s02  2p04  3d00  4f00
Ground state valence configuration (from tables):   1s01  2p00  3d00  4f00

---- Processing specs for species: Ti.1
Reading pseudopotential information in PSML from:
  Ti.1.psml
PSML file version: 1.1
Using libxc ids:  101 130
GGA--PBE XC_GGA_X_PBE--XC_GGA_C_PBE pb
PSML uuid: caed23e0-be41-11e7-4603-0bd897f88bea
Semicore shell(s) with  8 electrons included in the valence for Ti.1

---- Processing specs for species: C.2
Reading pseudopotential information in PSML from:
  C.2.psml
PSML file version: 1.1
Using libxc ids:  101 130
GGA--PBE XC_GGA_X_PBE--XC_GGA_C_PBE pb
PSML uuid: 297821e0-be41-11e7-6802-e1ff7dfff095

---- Processing specs for species: O.3
Reading pseudopotential information in PSML from:
  O.3.psml
PSML file version: 1.1
Using libxc ids:  101 130
GGA--PBE XC_GGA_X_PBE--XC_GGA_C_PBE pb
PSML uuid: 3cff85a0-be41-11e7-6c5c-1b1fe64d18ef

---- Processing specs for species: H.4
Reading pseudopotential information in PSML from:
  H.4.psml
PSML file version: 1.1
Using libxc ids:  101 130
GGA--PBE XC_GGA_X_PBE--XC_GGA_C_PBE pb
PSML uuid: f95fa9b0-be40-11e7-634a-9594ffff953f
resizes: Read basis size for species Ti.1 = dzp                 
resizes: Read basis size for species C.2 = dzp                 
resizes: Read basis size for species O.3 = dzp                 
resizes: Read basis size for species H.4 = dzp                 

---- Pseudopotential check for Ti

Pseudized shells:
3s( 2.00) rc: 1.36
3p( 6.00) rc: 1.31
3d( 2.00) rc: 1.66
Valence configuration for ps generation: 3s:3p:3d:4s: Total charge:  12.000000
Semicore shell(s): 3s 3p
Fallback to non-perturbative polarization scheme for Ti.1
Please see the manual if this is not desired in principle

---- Pseudopotential check for C 

Pseudized shells:
2s( 2.00) rc: 1.20
2p( 2.00) rc: 1.26
Valence configuration for ps generation: 2s:2p: Total charge:   4.000000

---- Pseudopotential check for O 

Pseudized shells:
2s( 2.00) rc: 1.36
2p( 4.00) rc: 1.46
3d( 0.00) rc: 1.26
Valence configuration for ps generation: 2s:2p: Total charge:   6.000000

---- Pseudopotential check for H 

Pseudized shells:
1s( 1.00) rc: 1.01
2p( 0.00) rc: 0.71
Valence configuration for ps generation: 1s: Total charge:   1.000000
For Ti.1, standard SIESTA heuristics set lmxkb to 3
 (one more than the basis l, including polarization orbitals).
Use PS.lmax or PS.KBprojectors blocks to override.
For C.2, standard SIESTA heuristics set lmxkb to 3
 (one more than the basis l, including polarization orbitals).
Use PS.lmax or PS.KBprojectors blocks to override.
For O.3, standard SIESTA heuristics set lmxkb to 3
 (one more than the basis l, including polarization orbitals).
Use PS.lmax or PS.KBprojectors blocks to override.
For H.4, standard SIESTA heuristics set lmxkb to 2
 (one more than the basis l, including polarization orbitals).
Use PS.lmax or PS.KBprojectors blocks to override.
Ti.1.psml pseudopotential only contains V_ls up to l=2 -- lmxkb reset.
C.2.psml pseudopotential only contains V_ls up to l=1 -- lmxkb reset.
O.3.psml pseudopotential only contains V_ls up to l=2 -- lmxkb reset.
H.4.psml pseudopotential only contains V_ls up to l=1 -- lmxkb reset.

<basis_specs>
===============================================================================
Ti.1                 Z=  22    Mass=  47.867        Charge= 0.17977+309
Lmxo=2 Lmxkb= 2    BasisType=split      Semic=T
L=0  Nsemic=1  Cnfigmx=4
          i=1  nzeta=1  polorb=0  (3s)  (semicore shell)
            splnorm:   0.15000    
               vcte:    40.000    
               rinn:  -0.90000    
               qcoe:    0.0000    
               qyuk:    0.0000    
               qwid:   0.10000E-01
                rcs:    0.0000    
            lambdas:    1.0000    
          i=2  nzeta=2  polorb=0  (4s)  (to be polarized non-perturbatively)
            splnorm:   0.15000    
               vcte:    40.000    
               rinn:  -0.90000    
               qcoe:    0.0000    
               qyuk:    0.0000    
               qwid:   0.10000E-01
                rcs:    0.0000      0.0000    
            lambdas:    1.0000      1.0000    
L=1  Nsemic=1  Cnfigmx=4
          i=1  nzeta=1  polorb=0  (3p)  (semicore shell)
            splnorm:   0.15000    
               vcte:    40.000    
               rinn:  -0.90000    
               qcoe:    0.0000    
               qyuk:    0.0000    
               qwid:   0.10000E-01
                rcs:    0.0000    
            lambdas:    1.0000    
          i=2  nzeta=1  polorb=0  (4p)  (non-perturbative polarization shell)
            splnorm:   0.15000    
               vcte:    40.000    
               rinn:  -0.90000    
               qcoe:    0.0000    
               qyuk:    0.0000    
               qwid:   0.10000E-01
                rcs:    0.0000    
            lambdas:    1.0000    
L=2  Nsemic=0  Cnfigmx=3
          i=1  nzeta=2  polorb=0  (3d)
            splnorm:   0.15000    
               vcte:    40.000    
               rinn:  -0.90000    
               qcoe:    0.0000    
               qyuk:    0.0000    
               qwid:   0.10000E-01
                rcs:    0.0000      0.0000    
            lambdas:    1.0000      1.0000    
-------------------------------------------------------------------------------
L=0  Nkbl=2  erefs: 0.17977+309 0.17977+309
L=1  Nkbl=2  erefs: 0.17977+309 0.17977+309
L=2  Nkbl=1  erefs: 0.17977+309
===============================================================================
</basis_specs>

Using PAO.SplitTailNorm
atom: Called for Ti.1                  (Z =  22)
Maximum radius (at nrval) set to   50.00000 8518

read_vps: Pseudopotential generation method:
read_vps: ONCVPSP-3.Hamann's oncvpsp                        
Valence charge in pseudo generation:   12.00000

read_vps: Pseudopotential includes a core correction:
read_vps: Pseudo-core for xc-correction

xc_check: Exchange-correlation functional:
xc_check: GGA Perdew-Wang 1991
xc_check: WARNING: Pseudopotential generated with GGA PBE functional
Got Vlocal (oncv-fit) from psml data
Choosing vlocal chloc cutoff:  3.029916
qtot up to nchloc:   12.00014688
atom: Maximum radius for chlocal:    3.02992
atom: Maximum radius for r*vlocal+2*Zval:    3.02992
Reading KB projs from Ti.1 psml data
Using scalar-relativistic projectors in PSML file

PSML: Kleinman-Bylander projectors: 
   l= 0   rc=  1.375180   Ekb= 22.724697
   l= 0   rc=  1.375180   Ekb=  2.527278
   l= 1   rc=  1.326200   Ekb=  3.950805
   l= 1   rc=  1.327537   Ekb= -0.169333
   l= 2   rc=  1.683555   Ekb=-10.372181
   l= 2   rc=  1.683555   Ekb= -2.954901

PSML: Total number of  Kleinman-Bylander projectors:  18
atom: -------------------------------------------------------------------------

atom: SANKEY-TYPE ORBITALS:
atom: Selected multiple-zeta basis: split     

SPLIT: Orbitals with angular momentum L= 0

SPLIT: Basis orbitals for state 3s

SPLIT: PAO cut-off radius determined from an
SPLIT: energy shift=  0.010000 Ry
Split based on tail norm

   izeta = 1
                 lambda =    1.000000
                     rc =    2.838606
                 energy =   -4.597225
                kinetic =    2.273030
    potential(screened) =   -6.870254
       potential(ionic) =  -22.987156

SPLIT: Basis orbitals for state 4s

SPLIT: PAO cut-off radius determined from an
SPLIT: energy shift=  0.010000 Ry
Split based on tail norm

   izeta = 1
                 lambda =    1.000000
                     rc =    7.610407
                 energy =   -0.332545
                kinetic =    0.735294
    potential(screened) =   -1.067839
       potential(ionic) =   -8.691262

   izeta = 2
                 rmatch =    5.674993
              splitnorm =    0.150000
                 energy =   -0.207882
                kinetic =    1.274420
    potential(screened) =   -1.482302
       potential(ionic) =  -10.515388

SPLIT: Orbitals with angular momentum L= 1

SPLIT: Basis orbitals for state 3p

SPLIT: PAO cut-off radius determined from an
SPLIT: energy shift=  0.010000 Ry
Split based on tail norm

   izeta = 1
                 lambda =    1.000000
                     rc =    3.182581
                 energy =   -2.849945
                kinetic =    4.934007
    potential(screened) =   -7.783952
       potential(ionic) =  -23.431190

SPLIT: Basis orbitals for state 4p
SPLIT: Non-perturbative polarization orbs for state 4s
SPLIT: rc(1st zeta) (re)set to: 7.6104 (expansion factor: 1.0000)
Split based on tail norm

   izeta = 1
                 lambda =    1.000000
                     rc =    7.610407
                 energy =   -0.059611
                kinetic =    0.841522
    potential(screened) =   -0.901133
       potential(ionic) =   -7.492803

SPLIT: Orbitals with angular momentum L= 2

SPLIT: Basis orbitals for state 3d

SPLIT: PAO cut-off radius determined from an
SPLIT: energy shift=  0.010000 Ry
Split based on tail norm

   izeta = 1
                 lambda =    1.000000
                     rc =    5.222189
                 energy =   -0.307134
                kinetic =    6.494781
    potential(screened) =   -6.801915
       potential(ionic) =  -20.306856

   izeta = 2
                 rmatch =    3.458873
              splitnorm =    0.150000
                 energy =   -0.200848
                kinetic =    8.180935
    potential(screened) =   -8.381783
       potential(ionic) =  -23.144487
atom: Total number of Sankey-type orbitals: 19

atm_pop: Valence configuration (for local Pseudopot. screening):
 3s( 2.00) 4s( 2.00)                                                  
 3p( 6.00) 4p( 0.00)                                                  
 3d( 2.00)                                                            
Vna: chval, zval:   12.00000  12.00000

Vna:  Cut-off radius for the neutral-atom potential:   7.610407
comcore: Pseudo-core radius Rcore=  1.766828

atom: _________________________________________________________________________

<basis_specs>
===============================================================================
C.2                  Z=   6    Mass=  12.011        Charge= 0.17977+309
Lmxo=2 Lmxkb= 1    BasisType=split      Semic=F
L=0  Nsemic=0  Cnfigmx=2
          i=1  nzeta=2  polorb=0  (2s)
            splnorm:   0.15000    
               vcte:    40.000    
               rinn:  -0.90000    
               qcoe:    0.0000    
               qyuk:    0.0000    
               qwid:   0.10000E-01
                rcs:    0.0000      0.0000    
            lambdas:    1.0000      1.0000    
L=1  Nsemic=0  Cnfigmx=2
          i=1  nzeta=2  polorb=1  (2p)  (to be polarized perturbatively)
            splnorm:   0.15000    
               vcte:    40.000    
               rinn:  -0.90000    
               qcoe:    0.0000    
               qyuk:    0.0000    
               qwid:   0.10000E-01
                rcs:    0.0000      0.0000    
            lambdas:    1.0000      1.0000    
L=2  Nsemic=0  Cnfigmx=3
          i=1  nzeta=0  polorb=0  (3d)  (perturbative polarization orbital) (from 2p)
-------------------------------------------------------------------------------
L=0  Nkbl=1  erefs: 0.17977+309
L=1  Nkbl=1  erefs: 0.17977+309
===============================================================================
</basis_specs>

Using PAO.SplitTailNorm
atom: Called for C.2                   (Z =   6)
NOTE: C.2 pseudopotential has channels up to l= 1
NOTE: PAOs with higher l will be generated with V_local
Maximum radius (at nrval) set to   50.00000 8518

read_vps: Pseudopotential generation method:
read_vps: ONCVPSP-3.Hamann's oncvpsp                        
Valence charge in pseudo generation:    4.00000

read_vps: Pseudopotential includes a core correction:
read_vps: Pseudo-core for xc-correction

xc_check: Exchange-correlation functional:
xc_check: GGA Perdew-Wang 1991
xc_check: WARNING: Pseudopotential generated with GGA PBE functional
Got Vlocal (oncv-fit) from psml data
Choosing vlocal chloc cutoff:  4.122282
qtot up to nchloc:    4.00001153
atom: Maximum radius for chlocal:    4.12228
atom: Maximum radius for r*vlocal+2*Zval:    4.12228
Reading KB projs from C.2 psml data
Using scalar-relativistic projectors in PSML file

PSML: Kleinman-Bylander projectors: 
   l= 0   rc=  1.219773   Ekb= 12.963096
   l= 0   rc=  1.219773   Ekb=  0.771007
   l= 1   rc=  1.278952   Ekb= -8.399923
   l= 1   rc=  1.278952   Ekb= -1.755033

PSML: Total number of  Kleinman-Bylander projectors:   8
atom: -------------------------------------------------------------------------

atom: SANKEY-TYPE ORBITALS:
atom: Selected multiple-zeta basis: split     

SPLIT: Orbitals with angular momentum L= 0

SPLIT: Basis orbitals for state 2s

SPLIT: PAO cut-off radius determined from an
SPLIT: energy shift=  0.010000 Ry
Split based on tail norm

   izeta = 1
                 lambda =    1.000000
                     rc =    4.475410
                 energy =   -1.003447
                kinetic =    0.961175
    potential(screened) =   -1.964622
       potential(ionic) =   -5.523305

   izeta = 2
                 rmatch =    3.042100
              splitnorm =    0.150000
                 energy =   -0.708481
                kinetic =    1.797647
    potential(screened) =   -2.506128
       potential(ionic) =   -6.357721

SPLIT: Orbitals with angular momentum L= 1

SPLIT: Basis orbitals for state 2p

SPLIT: PAO cut-off radius determined from an
SPLIT: energy shift=  0.010000 Ry
Split based on tail norm

   izeta = 1
                 lambda =    1.000000
                     rc =    5.457546
                 energy =   -0.381692
                kinetic =    2.519163
    potential(screened) =   -2.900854
       potential(ionic) =   -6.331131

   izeta = 2
                 rmatch =    3.691839
              splitnorm =    0.150000
                 energy =   -0.253500
                kinetic =    3.655124
    potential(screened) =   -3.908625
       potential(ionic) =   -7.668925
*Note: V_local used for l= 2

** Using vlocal for PAOs with L= 2

POLgen: Perturbative polarization orbital with L=  2

POLgen: Polarization orbital for state 2p
*Note: V_local used for lpol= 2

** Using vlocal for PAOs with L= 2
Split based on tail norm

   izeta = 1
                     rc =    5.457546
                 energy =    1.176775
                kinetic =    2.317287
    potential(screened) =   -1.140512
       potential(ionic) =   -3.995724
atom: Total number of Sankey-type orbitals: 13

atm_pop: Valence configuration (for local Pseudopot. screening):
 2s( 2.00)                                                            
 2p( 2.00)                                                            
 3d( 0.00)                                                            
Vna: chval, zval:    4.00000   4.00000

Vna:  Cut-off radius for the neutral-atom potential:   5.457546
comcore: Pseudo-core radius Rcore=  1.671741

atom: _________________________________________________________________________

<basis_specs>
===============================================================================
O.3                  Z=   8    Mass=  15.999        Charge= 0.17977+309
Lmxo=2 Lmxkb= 2    BasisType=split      Semic=F
L=0  Nsemic=0  Cnfigmx=2
          i=1  nzeta=2  polorb=0  (2s)
            splnorm:   0.15000    
               vcte:    40.000    
               rinn:  -0.90000    
               qcoe:    0.0000    
               qyuk:    0.0000    
               qwid:   0.10000E-01
                rcs:    0.0000      0.0000    
            lambdas:    1.0000      1.0000    
L=1  Nsemic=0  Cnfigmx=2
          i=1  nzeta=2  polorb=1  (2p)  (to be polarized perturbatively)
            splnorm:   0.15000    
               vcte:    40.000    
               rinn:  -0.90000    
               qcoe:    0.0000    
               qyuk:    0.0000    
               qwid:   0.10000E-01
                rcs:    0.0000      0.0000    
            lambdas:    1.0000      1.0000    
L=2  Nsemic=0  Cnfigmx=3
          i=1  nzeta=0  polorb=0  (3d)  (perturbative polarization orbital) (from 2p)
-------------------------------------------------------------------------------
L=0  Nkbl=1  erefs: 0.17977+309
L=1  Nkbl=1  erefs: 0.17977+309
L=2  Nkbl=1  erefs: 0.17977+309
===============================================================================
</basis_specs>

Using PAO.SplitTailNorm
atom: Called for O.3                   (Z =   8)
Maximum radius (at nrval) set to   50.00000 8518

read_vps: Pseudopotential generation method:
read_vps: ONCVPSP-3.Hamann's oncvpsp                        
Valence charge in pseudo generation:    6.00000

read_vps: Pseudopotential includes a core correction:
read_vps: Pseudo-core for xc-correction

xc_check: Exchange-correlation functional:
xc_check: GGA Perdew-Wang 1991
xc_check: WARNING: Pseudopotential generated with GGA PBE functional
Got Vlocal (oncv-fit) from psml data
Choosing vlocal chloc cutoff:  6.020499
qtot up to nchloc:    6.00001015
atom: Maximum radius for chlocal:    6.02050
atom: Maximum radius for r*vlocal+2*Zval:    6.02050
Reading KB projs from O.3 psml data
Using scalar-relativistic projectors in PSML file

PSML: Kleinman-Bylander projectors: 
   l= 0   rc=  1.372412   Ekb= 12.113471
   l= 0   rc=  1.372412   Ekb=  1.648048
   l= 1   rc=  1.474132   Ekb= -9.434259
   l= 1   rc=  1.474132   Ekb= -2.298541
   l= 2   rc=  1.277664   Ekb= -2.663910

PSML: Total number of  Kleinman-Bylander projectors:  13
atom: -------------------------------------------------------------------------

atom: SANKEY-TYPE ORBITALS:
atom: Selected multiple-zeta basis: split     

SPLIT: Orbitals with angular momentum L= 0

SPLIT: Basis orbitals for state 2s

SPLIT: PAO cut-off radius determined from an
SPLIT: energy shift=  0.010000 Ry
Split based on tail norm

   izeta = 1
                 lambda =    1.000000
                     rc =    3.532490
                 energy =   -1.756259
                kinetic =    1.592828
    potential(screened) =   -3.349087
       potential(ionic) =  -11.246957

   izeta = 2
                 rmatch =    2.296727
              splitnorm =    0.150000
                 energy =   -1.342857
                kinetic =    2.721466
    potential(screened) =   -4.064323
       potential(ionic) =  -12.672774

SPLIT: Orbitals with angular momentum L= 1

SPLIT: Basis orbitals for state 2p

SPLIT: PAO cut-off radius determined from an
SPLIT: energy shift=  0.010000 Ry
Split based on tail norm

   izeta = 1
                 lambda =    1.000000
                     rc =    4.308162
                 energy =   -0.658624
                kinetic =    4.630660
    potential(screened) =   -5.289284
       potential(ionic) =  -12.930979

   izeta = 2
                 rmatch =    2.779409
              splitnorm =    0.150000
                 energy =   -0.460551
                kinetic =    6.461861
    potential(screened) =   -6.922412
       potential(ionic) =  -15.308744

POLgen: Perturbative polarization orbital with L=  2

POLgen: Polarization orbital for state 2p
Split based on tail norm

   izeta = 1
                     rc =    4.308162
                 energy =    2.237799
                kinetic =    4.172724
    potential(screened) =   -1.934925
       potential(ionic) =   -8.049815
atom: Total number of Sankey-type orbitals: 13

atm_pop: Valence configuration (for local Pseudopot. screening):
 2s( 2.00)                                                            
 2p( 4.00)                                                            
 3d( 0.00)                                                            
Vna: chval, zval:    6.00000   6.00000

Vna:  Cut-off radius for the neutral-atom potential:   4.308162
comcore: Pseudo-core radius Rcore=  1.354557

atom: _________________________________________________________________________

<basis_specs>
===============================================================================
H.4                  Z=   1    Mass=  1.0080        Charge= 0.17977+309
Lmxo=1 Lmxkb= 1    BasisType=split      Semic=F
L=0  Nsemic=0  Cnfigmx=1
          i=1  nzeta=2  polorb=1  (1s)  (to be polarized perturbatively)
            splnorm:   0.15000    
               vcte:    40.000    
               rinn:  -0.90000    
               qcoe:    0.0000    
               qyuk:    0.0000    
               qwid:   0.10000E-01
                rcs:    0.0000      0.0000    
            lambdas:    1.0000      1.0000    
L=1  Nsemic=0  Cnfigmx=2
          i=1  nzeta=0  polorb=0  (2p)  (perturbative polarization orbital) (from 1s)
-------------------------------------------------------------------------------
L=0  Nkbl=1  erefs: 0.17977+309
L=1  Nkbl=1  erefs: 0.17977+309
===============================================================================
</basis_specs>

Using PAO.SplitTailNorm
atom: Called for H.4                   (Z =   1)
Maximum radius (at nrval) set to   50.00000 8518

read_vps: Pseudopotential generation method:
read_vps: ONCVPSP-3.Hamann's oncvpsp                        
Valence charge in pseudo generation:    1.00000

xc_check: Exchange-correlation functional:
xc_check: GGA Perdew-Wang 1991
xc_check: WARNING: Pseudopotential generated with GGA PBE functional
Got Vlocal (oncv-fit) from psml data
Choosing vlocal chloc cutoff:  1.926399
qtot up to nchloc:    0.99999831
atom: Maximum radius for chlocal:    1.92640
atom: Maximum radius for r*vlocal+2*Zval:    1.92640
Reading KB projs from H.4 psml data
Using scalar-relativistic projectors in PSML file

PSML: Kleinman-Bylander projectors: 
   l= 0   rc=  1.022342   Ekb= -3.402247
   l= 0   rc=  1.022342   Ekb= -1.068968
   l= 1   rc=  0.714575   Ekb= -1.006642

PSML: Total number of  Kleinman-Bylander projectors:   5
atom: -------------------------------------------------------------------------

atom: SANKEY-TYPE ORBITALS:
atom: Selected multiple-zeta basis: split     

SPLIT: Orbitals with angular momentum L= 0

SPLIT: Basis orbitals for state 1s

SPLIT: PAO cut-off radius determined from an
SPLIT: energy shift=  0.010000 Ry
Split based on tail norm

   izeta = 1
                 lambda =    1.000000
                     rc =    5.253677
                 energy =   -0.470406
                kinetic =    0.960195
    potential(screened) =   -1.430601
       potential(ionic) =   -1.952752

   izeta = 2
                 rmatch =    3.528949
              splitnorm =    0.150000
                 energy =   -0.305540
                kinetic =    1.736116
    potential(screened) =   -2.041656
       potential(ionic) =   -2.588654

POLgen: Perturbative polarization orbital with L=  1

POLgen: Polarization orbital for state 1s
Split based on tail norm

   izeta = 1
                     rc =    5.253677
                 energy =    0.682911
                kinetic =    1.341514
    potential(screened) =   -0.658603
       potential(ionic) =   -1.145954
atom: Total number of Sankey-type orbitals:  5

atm_pop: Valence configuration (for local Pseudopot. screening):
 1s( 1.00)                                                            
 2p( 0.00)                                                            
Vna: chval, zval:    1.00000   1.00000

Vna:  Cut-off radius for the neutral-atom potential:   5.253677

atom: _________________________________________________________________________

prinput: Basis input 

PAO.BasisType split     

%block ChemicalSpeciesLabel
    1   22 Ti.1                    # Species index, atomic number, species label
    2    6 C.2                     # Species index, atomic number, species label
    3    8 O.3                     # Species index, atomic number, species label
    4    1 H.4                     # Species index, atomic number, species label
%endblock ChemicalSpeciesLabel

%block PAO.Basis                 # Define Basis set
# WARNING: This information might be incomplete!
Ti.1                  5                    # Species label, number of l-shells
 n=3   0   1                         # n, l, Nzeta 
   2.839   
   1.000   
 n=4   0   2                         # n, l, Nzeta 
   7.610      5.675   
   1.000      1.000   
 n=3   1   1                         # n, l, Nzeta 
   3.183   
   1.000   
 n=4   1   1                         # n, l, Nzeta 
   7.610   
   1.000   
 n=3   2   2                         # n, l, Nzeta 
   5.222      3.459   
   1.000      1.000   
C.2                   2                    # Species label, number of l-shells
 n=2   0   2                         # n, l, Nzeta 
   4.475      3.042   
   1.000      1.000   
 n=2   1   2 P   1                   # n, l, Nzeta, Polarization, NzetaPol
   5.458      3.692   
   1.000      1.000   
O.3                   2                    # Species label, number of l-shells
 n=2   0   2                         # n, l, Nzeta 
   3.532      2.297   
   1.000      1.000   
 n=2   1   2 P   1                   # n, l, Nzeta, Polarization, NzetaPol
   4.308      2.779   
   1.000      1.000   
H.4                   1                    # Species label, number of l-shells
 n=1   0   2 P   1                   # n, l, Nzeta, Polarization, NzetaPol
   5.254      3.529   
   1.000      1.000   
%endblock PAO.Basis

prinput: ----------------------------------------------------------------------

coor:   Atomic-coordinates input format  =     Cartesian coordinates
coor:                                          (in Angstroms)

siesta: Atomic coordinates (Bohr) and species
siesta:     -0.00000   3.49131  18.89726  1        1
siesta:      3.02356   1.74565  21.25942  1        2
siesta:      0.00000   0.00000  23.62158  2        3
siesta:     -0.00000   3.49131  25.98373  3        4
siesta:      3.02356   1.74565  16.53510  3        5
siesta:     -0.00000   3.49131  28.34589  4        6
siesta:      3.02356   1.74565  14.17295  4        7

siesta: System type = slab      

initatomlists: Number of atoms, orbitals, and projectors:      7    87    80

siesta: ******************** Simulation parameters ****************************
siesta:
siesta: The following are some of the parameters of the simulation.
siesta: A complete list of the parameters used, including default values,
siesta: can be found in file out.fdf
siesta:
redata: Spin configuration                          = collinear
redata: Number of spin components                   = 2
redata: Time-Reversal Symmetry                      = T
redata: Spin spiral                                 = F
redata: Long output                                 =   F
redata: Number of Atomic Species                    =        4
redata: Charge density info will appear in .RHO file
redata: Write Mulliken charges (when)               = none
redata: Write Mulliken Pop.                         = NO
redata: Write Hirshfeld charges (when)              = none
redata: Write Voronoi charges (when)                = none
redata: Write spin charge (when)                    = scf
redata: Matel table size (NRTAB)                    =     1024
redata: Mesh Cutoff                                 =   150.0000 Ry
redata: Net charge of the system                    =     0.0000 |e|
redata: Min. number of SCF Iter                     =        0
redata: Max. number of SCF Iter                     =      200
redata: SCF convergence failure will abort job
redata: SCF mix quantity                            = Hamiltonian
redata: Mix DM or H after convergence               =   F
redata: Recompute H after scf cycle                 =   F
redata: Mix DM in first SCF step                    =   T
redata: Write Pulay info on disk                    =   F
redata: New DM Occupancy tolerance                  = 0.000000000001
redata: No kicks to SCF
redata: DM Mixing Weight for Kicks                  =     0.5000
redata: Require Harris convergence for SCF          =   F
redata: Harris energy tolerance for SCF             =     0.000100 eV
redata: Require DM convergence for SCF              =   T
redata: DM tolerance for SCF                        =     0.000100
redata: Require EDM convergence for SCF             =   F
redata: EDM tolerance for SCF                       =     0.000100 eV
redata: Require H convergence for SCF               =   T
redata: Hamiltonian tolerance for SCF               =     0.000100 eV
redata: Require (free) Energy convergence for SCF   =   F
redata: (free) Energy tolerance for SCF             =     0.000100 eV
redata: Antiferro initial spin density              =   F
redata: Using DFT-D3 dispersion                     =   F
redata: Using Saved Data (generic)                  =   F
redata: Use continuation files for DM               =   T
redata: Neglect nonoverlap interactions             =   F
redata: Method of Calculation                       = Diagonalization
redata: Electronic Temperature                      =   300.0000 K
redata: Fix the spin of the system                  =   F
redata: Max. number of TDED Iter                    =        1
redata: Number of TDED substeps                     =        3
redata: Dynamics option                             = CG coord. optimization
redata: Variable cell                               =   T
redata: Use continuation files for CG               =   F
redata: Max atomic displ per move                   =     0.1058 Ang
redata: Maximum number of optimization moves        =      100
redata: Force tolerance                             =     0.0400 eV/Ang
redata: Stress tolerance                            =     1.0000 GPa
mix.SCF: Pulay mixing                            = Pulay
mix.SCF:    Variant                              = stable
mix.SCF:    History steps                        = 5
mix.SCF:    Linear mixing weight                 =     0.100000
mix.SCF:    Mixing weight                        =     0.100000
mix.SCF:    SVD condition                        = 0.1000E-07
mix.SCF: Spin-component mixing                   all
redata: ***********************************************************************

%block SCF.Mixers
  Pulay
%endblock SCF.Mixers

%block SCF.Mixer.Pulay
  # Mixing method
  method pulay
  variant stable

  # Mixing options
  weight 0.1000
  weight.linear 0.1000
  history 5
%endblock SCF.Mixer.Pulay

DM_history_depth set to one: no extrapolation allowed by default for geometry relaxation
Size of DM history Fstack: 1
Total number of electrons:    42.000000
Total ionic charge:    42.000000

* ProcessorY, Blocksize:    1  64


* Orbital distribution balance (max,min):    87    87

k-point displ. along   1 input, could be:     0.00    0.50
k-point displ. along   2 input, could be:     0.00    0.50
 Kpoints in:           24 . Kpoints trimmed:           22

siesta: k-grid: Number of k-points = 22
siesta: k-points from Monkhorst-Pack grid
siesta: k-cutoff (effective) =     9.600 Ang
siesta: k-point supercell and displacements
siesta: k-grid:     6     0     0      0.000
siesta: k-grid:     0     6     0      0.000
siesta: k-grid:     0     0     1      0.000

diag: Algorithm                                     = D&C
diag: Parallel over k                               =   F
diag: Use parallel 2D distribution                  =   F
diag: Parallel block-size                           = 64
diag: Parallel distribution                         =     1 x     1
diag: Used triangular part                          = Lower
diag: Absolute tolerance                            =  0.100E-15
diag: Orthogonalization factor                      =  0.100E-05
diag: Memory factor                                 =  1.0000

superc: Internal auxiliary supercell:     7 x     7 x     1  =      49
superc: Number of atoms, orbitals, and projectors:    343   4263   3920


ts: **************************************************************
ts: Save H and S matrices                           =    F
ts: Save DM and EDM matrices                        =    F
ts: Only save the overlap matrix S                  =    F
ts: **************************************************************

************************ Begin: TS CHECKS AND WARNINGS ************************
************************ End: TS CHECKS AND WARNINGS **************************


                     ====================================
                        Begin CG opt. move =      0
                     ====================================

superc: Internal auxiliary supercell:     7 x     7 x     1  =      49
superc: Number of atoms, orbitals, and projectors:    343   4263   3920

outcell: Unit cell vectors (Ang):
        3.200000    0.000000    0.000000
       -1.600000    2.771281    0.000000
        0.000000    0.000000   25.000000

outcell: Cell vector modules (Ang)   :    3.200000    3.200000   25.000000
outcell: Cell angles (23,13,12) (deg):     90.0000     90.0000    120.0000
outcell: Cell volume (Ang**3)        :    221.7025
<dSpData1D:S at geom step 0
  <sparsity:sparsity for geom step 0
    nrows_g=87 nrows=87 sparsity=7.9409 nnzs=60105, refcount: 7>
  <dData1D:(new from dSpData1D) n=60105, refcount: 1>
refcount: 1>
new_DM -- step:     1
Initializing Density Matrix...

Attempting to read DM from file... Failed...
WARNING: Wrong number of orbitals in DM file: 77
WARNING: Expected number of orbitals in DM file: 87
WARNING: Falling back to alternate initialization of DM.
DM filled with atomic data (user-defined):
<dSpData2D:DM initialized from atoms
  <sparsity:sparsity for geom step 0
    nrows_g=87 nrows=87 sparsity=7.9409 nnzs=60105, refcount: 8>
  <dData2D:DM n=60105 m=2, refcount: 1>
refcount: 1>
No. of atoms with KB's overlaping orbs in proc 0. Max # of overlaps:      56     223

InitMesh: MESH = 24 x 24 x 192 = 110592
InitMesh: Mesh cutoff (required, used) =   150.000   163.014 Ry
New grid distribution [1]: sub = 2

stepf: Fermi-Dirac step function

siesta: Program's energy decomposition (eV):
siesta: Ebs     =      -920.692416
siesta: Eions   =      6473.223125
siesta: Ena     =       987.462672
siesta: Ekin    =      1998.124061
siesta: Enl     =      -118.488267
siesta: Eso     =         0.000000
siesta: Edftu   =         0.000000
siesta: DEna    =        61.616307
siesta: DUscf   =        17.722806
siesta: DUext   =         0.000000
siesta: Ex      =      -722.946264
siesta: Ec      =       -54.562999
siesta: Exc     =      -777.509263
siesta: EbV     =         0.000000
siesta: eta*DQ  =         0.000000
siesta: Emadel  =         0.000000
siesta: Emeta   =         0.000000
siesta: Emolmec =         0.000000
siesta: Ekinion =         0.000000
siesta: Eharris =     -4260.442805
siesta: Etot    =     -4304.294809
siesta: FreeEng =     -4304.309590

        iscf     Eharris(eV)        E_KS(eV)     FreeEng(eV)     dDmax    Ef(eV) dHmax(eV)
   scf:    1    -4260.442805    -4304.294809    -4304.309590  0.855986 -5.219475 26.252535
     spin moment: {S} , |S| = {        0.0        0.0    0.00000 }     0.00000
timer: Routine,Calls,Time,% = IterSCF        1       0.562   1.53
   scf:    2    -4009.308873    -4234.186806    -4234.197432  0.353973 -5.186982 55.678481
     spin moment: {S} , |S| = {        0.0        0.0    0.00000 }     0.00000
   scf:    3    -4321.282704    -4317.950893    -4317.961685  0.278714 -4.700762  5.779333
     spin moment: {S} , |S| = {        0.0        0.0    0.00000 }     0.00000
   scf:    4    -4317.565578    -4318.042639    -4318.053807  0.043218 -4.406432  6.319360
     spin moment: {S} , |S| = {        0.0        0.0    0.00000 }     0.00000
   scf:    5    -4318.999275    -4318.704456    -4318.716046  0.030447 -4.112697  1.720986
     spin moment: {S} , |S| = {        0.0        0.0    0.00000 }     0.00000
   scf:    6    -4318.837874    -4318.795567    -4318.807787  0.009914 -3.998373  0.650656
     spin moment: {S} , |S| = {        0.0        0.0    0.00000 }     0.00000
   scf:    7    -4318.782622    -4318.809363    -4318.821605  0.010027 -3.959386  0.877742
     spin moment: {S} , |S| = {        0.0        0.0    0.00000 }     0.00000
   scf:    8    -4318.829039    -4318.824584    -4318.836885  0.006169 -3.935786  0.224833
     spin moment: {S} , |S| = {        0.0        0.0    0.00000 }     0.00000
   scf:    9    -4318.827822    -4318.826391    -4318.838766  0.002450 -3.908914  0.217760
     spin moment: {S} , |S| = {        0.0        0.0    0.00000 }     0.00000
   scf:   10    -4318.828063    -4318.827430    -4318.839847  0.002957 -3.879968  0.115835
     spin moment: {S} , |S| = {        0.0        0.0    0.00000 }     0.00000
   scf:   11    -4318.827723    -4318.827593    -4318.839998  0.000389 -3.877372  0.100810
     spin moment: {S} , |S| = {        0.0        0.0    0.00000 }     0.00000
   scf:   12    -4318.827701    -4318.827716    -4318.840132  0.001134 -3.852224  0.089833
     spin moment: {S} , |S| = {        0.0        0.0    0.00000 }     0.00000
   scf:   13    -4318.828216    -4318.828022    -4318.840413  0.001812 -3.817223  0.043438
     spin moment: {S} , |S| = {        0.0        0.0    0.00000 }     0.00000
   scf:   14    -4318.828135    -4318.828117    -4318.840513  0.000609 -3.813047  0.016429
     spin moment: {S} , |S| = {        0.0        0.0    0.00000 }     0.00000
   scf:   15    -4318.828124    -4318.828125    -4318.840519  0.000326 -3.809134  0.007469
     spin moment: {S} , |S| = {        0.0        0.0    0.00000 }     0.00000
   scf:   16    -4318.828117    -4318.828122    -4318.840522  0.000102 -3.808684  0.002831
     spin moment: {S} , |S| = {        0.0        0.0    0.00000 }     0.00000
   scf:   17    -4318.828122    -4318.828122    -4318.840523  0.000035 -3.807742  0.001901
     spin moment: {S} , |S| = {        0.0        0.0    0.00000 }     0.00000
   scf:   18    -4318.828124    -4318.828123    -4318.840524  0.000025 -3.807749  0.001276
     spin moment: {S} , |S| = {        0.0        0.0    0.00000 }     0.00000
   scf:   19    -4318.828125    -4318.828124    -4318.840524  0.000073 -3.807509  0.000845
     spin moment: {S} , |S| = {        0.0        0.0    0.00000 }     0.00000
   scf:   20    -4318.828124    -4318.828124    -4318.840524  0.000021 -3.807778  0.000224
     spin moment: {S} , |S| = {        0.0        0.0    0.00000 }     0.00000
   scf:   21    -4318.828124    -4318.828124    -4318.840524  0.000006 -3.807773  0.000193
     spin moment: {S} , |S| = {        0.0        0.0    0.00000 }     0.00000
   scf:   22    -4318.828124    -4318.828124    -4318.840524  0.000015 -3.807816  0.000120
     spin moment: {S} , |S| = {        0.0        0.0    0.00000 }     0.00000
   scf:   23    -4318.828124    -4318.828124    -4318.840524  0.000011 -3.807783  0.000066
     spin moment: {S} , |S| = {        0.0        0.0    0.00000 }     0.00000

SCF Convergence by DM+H criterion
max |DM_out - DM_in|         :     0.0000106344
max |H_out - H_in|      (eV) :     0.0000661399
SCF cycle converged after 23 iterations

Using DM_out to compute the final energy and forces
No. of atoms with KB's overlaping orbs in proc 0. Max # of overlaps:      56     223

siesta: E_KS(eV) =            -4318.8281

siesta: E_KS - E_eggbox =     -4318.8281

siesta: Atomic forces (eV/Ang):
----------------------------------------
   Tot   -0.000061    0.000035   -0.014480
----------------------------------------
   Max    8.755317
   Res    2.978210    sqrt( Sum f_i^2 / 3N )
----------------------------------------
   Max    8.755317    constrained

Stress tensor Voigt[x,y,z,yz,xz,xy] (kbar):      -10.02       -9.98       62.18       -0.00        0.00        0.04
(Free)E + p*V (eV/cell)    -4320.7865
Target enthalpy (eV/cell)    -4318.8405

siesta: Stress tensor (static) (eV/Ang**3):
        -0.006253    0.000024    0.000002
         0.000024   -0.006226   -0.000001
         0.000002   -0.000001    0.038812

siesta: Pressure (static):        -14.06306993  kBar

siesta: Stress tensor (total) (eV/Ang**3):
        -0.006253    0.000024    0.000002
         0.000024   -0.006226   -0.000001
         0.000002   -0.000001    0.038812

siesta: Pressure (total):        -14.06306993  kBar

cgvc: No target stress found, assuming hydrostatic MD.TargetPressure.

cgvc: Target stress (kBar)
cgvc:        -0.000       0.000       0.000
cgvc:         0.000      -0.000       0.000
cgvc:         0.000       0.000      -0.000

                     ====================================
                        Begin CG opt. move =      1
                     ====================================
k-point displ. along   1 input, could be:     0.00    0.50
k-point displ. along   2 input, could be:     0.00    0.50
 Kpoints in:           24 . Kpoints trimmed:           22

siesta: k-grid: Number of k-points = 22
siesta: k-points from Monkhorst-Pack grid
siesta: k-cutoff (effective) =     9.604 Ang
siesta: k-point supercell and displacements
siesta: k-grid:     6     0     0      0.000
siesta: k-grid:     0     6     0      0.000
siesta: k-grid:     0     0     1      0.000

superc: Internal auxiliary supercell:     7 x     7 x     1  =      49
superc: Number of atoms, orbitals, and projectors:    343   4263   3920

outcell: Unit cell vectors (Ang):
        3.201365   -0.000005   -0.000000
       -1.600687    2.772461    0.000000
       -0.000003    0.000002   24.933824

outcell: Cell vector modules (Ang)   :    3.201365    3.201365   24.933824
outcell: Cell angles (23,13,12) (deg):     90.0000     90.0000    120.0002
outcell: Cell volume (Ang**3)        :    221.3039
<dSpData1D:S at geom step 1
  <sparsity:sparsity for geom step 1
    nrows_g=87 nrows=87 sparsity=7.9407 nnzs=60103, refcount: 7>
  <dData1D:(new from dSpData1D) n=60103, refcount: 1>
refcount: 1>
new_DM -- step:     2
Re-using DM from previous geometries...
Number of DMs in history: 1
 DM extrapolation coefficients: 
1   1.00000
New DM after history re-use:
<dSpData2D:SpM extrapolated using coords
  <sparsity:sparsity for geom step 1
    nrows_g=87 nrows=87 sparsity=7.9407 nnzs=60103, refcount: 9>
  <dData2D:(temp array for extrapolation) n=60103 m=2, refcount: 1>
refcount: 1>
Note: For starting DM, Qtot, Tr[D*S] =         42.00000000         42.06021470
No. of atoms with KB's overlaping orbs in proc 0. Max # of overlaps:      56     223

InitMesh: MESH = 24 x 24 x 192 = 110592
InitMesh: Mesh cutoff (required, used) =   150.000   163.880 Ry
New grid distribution [1]: sub = 2

        iscf     Eharris(eV)        E_KS(eV)     FreeEng(eV)     dDmax    Ef(eV) dHmax(eV)
   scf:    1    -4181.559196    -4273.974809    -4273.982611  0.239775 -4.561807 42.058703
     spin moment: {S} , |S| = {        0.0        0.0    0.00000 }     0.00000
   scf:    2    30304.396119     7003.430840     7003.430730 24.074310 -2.192540712.019968
     spin moment: {S} , |S| = {        0.0        0.0    0.00000 }     0.00000
   scf:    3    -6209.281553    -4258.706026    -4258.715318 24.070622 -3.453651 50.511749
     spin moment: {S} , |S| = {        0.0        0.0    0.00000 }     0.00000
   scf:    4    -4330.883616    -4300.584528    -4300.600065  0.117007 -3.611872 29.550346
     spin moment: {S} , |S| = {        0.0        0.0    0.00000 }     0.00000
   scf:    5    -4327.019308    -4318.071727    -4318.088708  0.063132 -3.886880 10.549180
     spin moment: {S} , |S| = {        0.0        0.0    0.00000 }     0.00000
   scf:    6    -4320.528769    -4319.469251    -4319.484926  0.017701 -3.935656  6.398562
     spin moment: {S} , |S| = {        0.0        0.0    0.00000 }     0.00000
   scf:    7    -4320.528526    -4320.200056    -4320.215096  0.018425 -3.947487  1.761368
     spin moment: {S} , |S| = {        0.0        0.0    0.00000 }     0.00000
   scf:    8    -4320.273781    -4320.279012    -4320.293840  0.007185 -3.892854  0.378935
     spin moment: {S} , |S| = {        0.0        0.0    0.00000 }     0.00000
   scf:    9    -4320.286955    -4320.286929    -4320.301611  0.003171 -3.869583  0.102365
     spin moment: {S} , |S| = {        0.0        0.0    0.00000 }     0.00000
   scf:   10    -4320.287339    -4320.287250    -4320.301954  0.000552 -3.870404  0.049280
     spin moment: {S} , |S| = {        0.0        0.0    0.00000 }     0.00000
   scf:   11    -4320.287786    -4320.287560    -4320.302284  0.000487 -3.868298  0.028792
     spin moment: {S} , |S| = {        0.0        0.0    0.00000 }     0.00000
   scf:   12    -4320.287676    -4320.287622    -4320.302341  0.000181 -3.867059  0.021387
     spin moment: {S} , |S| = {        0.0        0.0    0.00000 }     0.00000
   scf:   13    -4320.287690    -4320.287660    -4320.302368  0.000197 -3.865657  0.007805
     spin moment: {S} , |S| = {        0.0        0.0    0.00000 }     0.00000
   scf:   14    -4320.287664    -4320.287662    -4320.302369  0.000023 -3.865452  0.006512
     spin moment: {S} , |S| = {        0.0        0.0    0.00000 }     0.00000
   scf:   15    -4320.287682    -4320.287673    -4320.302374  0.000190 -3.863775  0.003064
     spin moment: {S} , |S| = {        0.0        0.0    0.00000 }     0.00000
   scf:   16    -4320.287674    -4320.287673    -4320.302374  0.000049 -3.862933  0.002537
     spin moment: {S} , |S| = {        0.0        0.0    0.00000 }     0.00000
   scf:   17    -4320.287674    -4320.287674    -4320.302375  0.000017 -3.862710  0.001029
     spin moment: {S} , |S| = {        0.0        0.0    0.00000 }     0.00000
   scf:   18    -4320.287674    -4320.287674    -4320.302375  0.000010 -3.862649  0.000501
     spin moment: {S} , |S| = {        0.0        0.0    0.00000 }     0.00000
   scf:   19    -4320.287673    -4320.287673    -4320.302375  0.000012 -3.862539  0.000226
     spin moment: {S} , |S| = {        0.0        0.0    0.00000 }     0.00000
   scf:   20    -4320.287673    -4320.287673    -4320.302375  0.000004 -3.862527  0.000133
     spin moment: {S} , |S| = {        0.0        0.0    0.00000 }     0.00000
   scf:   21    -4320.287673    -4320.287673    -4320.302375  0.000003 -3.862545  0.000088
     spin moment: {S} , |S| = {        0.0        0.0    0.00000 }     0.00000

SCF Convergence by DM+H criterion
max |DM_out - DM_in|         :     0.0000029037
max |H_out - H_in|      (eV) :     0.0000877821
SCF cycle converged after 21 iterations

Using DM_out to compute the final energy and forces
No. of atoms with KB's overlaping orbs in proc 0. Max # of overlaps:      56     223

siesta: E_KS(eV) =            -4320.2877

siesta: Atomic forces (eV/Ang):
----------------------------------------
   Tot   -0.000059    0.000034    0.001134
----------------------------------------
   Max    9.338055
   Res    3.009316    sqrt( Sum f_i^2 / 3N )
----------------------------------------
   Max    9.338055    constrained

Stress tensor Voigt[x,y,z,yz,xz,xy] (kbar):       -1.33       -1.26       32.52        0.00       -0.00        0.06
(Free)E + p*V (eV/cell)    -4321.6804
Target enthalpy (eV/cell)    -4320.3024

siesta: Stress tensor (static) (eV/Ang**3):
        -0.000830    0.000038   -0.000001
         0.000038   -0.000786    0.000000
        -0.000001    0.000000    0.020296

siesta: Pressure (static):         -9.97631791  kBar

siesta: Stress tensor (total) (eV/Ang**3):
        -0.000830    0.000038   -0.000001
         0.000038   -0.000786    0.000000
        -0.000001    0.000000    0.020296

siesta: Pressure (total):         -9.97631791  kBar

                     ====================================
                        Begin CG opt. move =      2
                     ====================================
k-point displ. along   1 input, could be:     0.00    0.50
k-point displ. along   2 input, could be:     0.00    0.50
 Kpoints in:           24 . Kpoints trimmed:           22

siesta: k-grid: Number of k-points = 22
siesta: k-points from Monkhorst-Pack grid
siesta: k-cutoff (effective) =     9.610 Ang
siesta: k-point supercell and displacements
siesta: k-grid:     6     0     0      0.000
siesta: k-grid:     0     6     0      0.000
siesta: k-grid:     0     0     1      0.000

superc: Internal auxiliary supercell:     7 x     7 x     1  =      49
superc: Number of atoms, orbitals, and projectors:    343   4263   3920

outcell: Unit cell vectors (Ang):
        3.203510   -0.000013   -0.000001
       -1.601766    2.774314    0.000001
       -0.000008    0.000005   24.829809

outcell: Cell vector modules (Ang)   :    3.203510    3.203510   24.829809
outcell: Cell angles (23,13,12) (deg):     90.0000     90.0000    120.0005
outcell: Cell volume (Ang**3)        :    220.6755
<dSpData1D:S at geom step 2
  <sparsity:sparsity for geom step 2
    nrows_g=87 nrows=87 sparsity=7.8960 nnzs=59765, refcount: 7>
  <dData1D:(new from dSpData1D) n=59765, refcount: 1>
refcount: 1>
new_DM -- step:     3
Re-using DM from previous geometries...
Number of DMs in history: 1
 DM extrapolation coefficients: 
1   1.00000
New DM after history re-use:
<dSpData2D:SpM extrapolated using coords
  <sparsity:sparsity for geom step 2
    nrows_g=87 nrows=87 sparsity=7.8960 nnzs=59765, refcount: 9>
  <dData2D:(temp array for extrapolation) n=59765 m=2, refcount: 1>
refcount: 1>
Note: For starting DM, Qtot, Tr[D*S] =         42.00000000         42.09302414
No. of atoms with KB's overlaping orbs in proc 0. Max # of overlaps:      56     220

InitMesh: MESH = 24 x 24 x 192 = 110592
InitMesh: Mesh cutoff (required, used) =   150.000   165.256 Ry
New grid distribution [1]: sub = 2

        iscf     Eharris(eV)        E_KS(eV)     FreeEng(eV)     dDmax    Ef(eV) dHmax(eV)
   scf:    1    -4041.697009    -4228.910333    -4228.913381  0.336817 -4.613124 60.010885
     spin moment: {S} , |S| = {        0.0        0.0    0.00000 }     0.00000
   scf:    2    41156.563231    10450.045463    10450.033755 30.039105-10.577455805.843131
     spin moment: {S} , |S| = {        0.0        0.0    0.00000 }     0.00000
   scf:    3    -7064.586394    -4216.346870    -4216.349835 30.027206 -3.008046 66.931380
     spin moment: {S} , |S| = {        0.0        0.0    0.00000 }     0.00000
   scf:    4    -4268.491251    -4243.415743    -4243.416456  0.077746 -3.070019 58.340828
     spin moment: {S} , |S| = {        0.0        0.0    0.00000 }     0.00000
   scf:    5    -4259.951568    -4314.910487    -4314.922827  0.250165 -3.933952 14.937300
     spin moment: {S} , |S| = {        0.0        0.0    0.00000 }     0.00000
   scf:    6    -4310.943391    -4320.279792    -4320.286373  0.098059 -3.736458 10.763205
     spin moment: {S} , |S| = {        0.0        0.0    0.00000 }     0.00000
   scf:    7    -4320.954540    -4321.578146    -4321.580056  0.053409 -4.007212  5.873917
     spin moment: {S} , |S| = {        0.0        0.0    0.00000 }     0.00000
   scf:    8    -4321.122650    -4321.438528    -4321.440960  0.017561 -3.911680  5.556351
     spin moment: {S} , |S| = {        0.0        0.0    0.00000 }     0.00000
   scf:    9    -4320.118595    -4321.908291    -4321.913752  0.035337 -3.805018  4.702154
     spin moment: {S} , |S| = {        0.0        0.0    0.00000 }     0.00000
   scf:   10    -4322.443271    -4322.393985    -4322.400430  0.025873 -3.727459  0.405485
     spin moment: {S} , |S| = {        0.0        0.0    0.00000 }     0.00000
   scf:   11    -4322.385563    -4322.396158    -4322.401916  0.004110 -3.733150  0.435932
     spin moment: {S} , |S| = {        0.0        0.0    0.00000 }     0.00000
   scf:   12    -4322.400567    -4322.401644    -4322.407848  0.003456 -3.705161  0.124476
     spin moment: {S} , |S| = {        0.0        0.0    0.00000 }     0.00000
   scf:   13    -4322.402473    -4322.402303    -4322.408399  0.001125 -3.707502  0.033882
     spin moment: {S} , |S| = {        0.0        0.0    0.00000 }     0.00000
   scf:   14    -4322.402459    -4322.402387    -4322.408484  0.000256 -3.706280  0.034856
     spin moment: {S} , |S| = {        0.0        0.0    0.00000 }     0.00000
   scf:   15    -4322.402484    -4322.402439    -4322.408530  0.000205 -3.705455  0.025196
     spin moment: {S} , |S| = {        0.0        0.0    0.00000 }     0.00000
   scf:   16    -4322.402468    -4322.402457    -4322.408554  0.000188 -3.704062  0.007895
     spin moment: {S} , |S| = {        0.0        0.0    0.00000 }     0.00000
   scf:   17    -4322.402454    -4322.402456    -4322.408558  0.000084 -3.703343  0.008393
     spin moment: {S} , |S| = {        0.0        0.0    0.00000 }     0.00000
   scf:   18    -4322.402446    -4322.402451    -4322.408558  0.000042 -3.702752  0.006063
     spin moment: {S} , |S| = {        0.0        0.0    0.00000 }     0.00000
   scf:   19    -4322.402443    -4322.402447    -4322.408559  0.000113 -3.701594  0.006435
     spin moment: {S} , |S| = {        0.0        0.0    0.00000 }     0.00000
   scf:   20    -4322.402447    -4322.402447    -4322.408560  0.000031 -3.701000  0.002771
     spin moment: {S} , |S| = {        0.0        0.0    0.00000 }     0.00000
   scf:   21    -4322.402449    -4322.402448    -4322.408560  0.000043 -3.700187  0.001380
     spin moment: {S} , |S| = {        0.0        0.0    0.00000 }     0.00000
   scf:   22    -4322.402450    -4322.402449    -4322.408560  0.000014 -3.700155  0.000424
     spin moment: {S} , |S| = {        0.0        0.0    0.00000 }     0.00000
   scf:   23    -4322.402449    -4322.402449    -4322.408561  0.000005 -3.700231  0.000238
     spin moment: {S} , |S| = {        0.0        0.0    0.00000 }     0.00000
   scf:   24    -4322.402449    -4322.402449    -4322.408561  0.000002 -3.700277  0.000094
     spin moment: {S} , |S| = {        0.0        0.0    0.00000 }     0.00000

SCF Convergence by DM+H criterion
max |DM_out - DM_in|         :     0.0000020351
max |H_out - H_in|      (eV) :     0.0000937886
SCF cycle converged after 24 iterations

Using DM_out to compute the final energy and forces
No. of atoms with KB's overlaping orbs in proc 0. Max # of overlaps:      56     220

siesta: E_KS(eV) =            -4322.4024

siesta: Atomic forces (eV/Ang):
----------------------------------------
   Tot   -0.000461    0.000266    0.001972
----------------------------------------
   Max    8.189888
   Res    2.431155    sqrt( Sum f_i^2 / 3N )
----------------------------------------
   Max    8.189888    constrained

Stress tensor Voigt[x,y,z,yz,xz,xy] (kbar):        7.40        7.45       -1.57       -0.01        0.01        0.04
(Free)E + p*V (eV/cell)    -4323.0182
Target enthalpy (eV/cell)    -4322.4086

siesta: Stress tensor (static) (eV/Ang**3):
         0.004618    0.000028    0.000006
         0.000028    0.004650   -0.000003
         0.000006   -0.000003   -0.000980

siesta: Pressure (static):         -4.42601869  kBar

siesta: Stress tensor (total) (eV/Ang**3):
         0.004618    0.000028    0.000006
         0.000028    0.004650   -0.000003
         0.000006   -0.000003   -0.000980

siesta: Pressure (total):         -4.42601869  kBar

                     ====================================
                        Begin CG opt. move =      3
                     ====================================
k-point displ. along   1 input, could be:     0.00    0.50
k-point displ. along   2 input, could be:     0.00    0.50
 Kpoints in:           24 . Kpoints trimmed:           22

siesta: k-grid: Number of k-points = 22
siesta: k-points from Monkhorst-Pack grid
siesta: k-cutoff (effective) =     9.617 Ang
siesta: k-point supercell and displacements
siesta: k-grid:     6     0     0      0.000
siesta: k-grid:     0     6     0      0.000
siesta: k-grid:     0     0     1      0.000

superc: Internal auxiliary supercell:     7 x     7 x     1  =      49
superc: Number of atoms, orbitals, and projectors:    343   4263   3920

outcell: Unit cell vectors (Ang):
        3.205655   -0.000021   -0.000002
       -1.602846    2.776168    0.000002
       -0.000013    0.000008   24.725793

outcell: Cell vector modules (Ang)   :    3.205655    3.205655   24.725793
outcell: Cell angles (23,13,12) (deg):     89.9999     90.0001    120.0008
outcell: Cell volume (Ang**3)        :    220.0448
<dSpData1D:S at geom step 3
  <sparsity:sparsity for geom step 3
    nrows_g=87 nrows=87 sparsity=7.8857 nnzs=59687, refcount: 7>
  <dData1D:(new from dSpData1D) n=59687, refcount: 1>
refcount: 1>
new_DM -- step:     4
Re-using DM from previous geometries...
Number of DMs in history: 1
 DM extrapolation coefficients: 
1   1.00000
New DM after history re-use:
<dSpData2D:SpM extrapolated using coords
  <sparsity:sparsity for geom step 3
    nrows_g=87 nrows=87 sparsity=7.8857 nnzs=59687, refcount: 9>
  <dData2D:(temp array for extrapolation) n=59687 m=2, refcount: 1>
refcount: 1>
Note: For starting DM, Qtot, Tr[D*S] =         42.00000000         42.09215659
No. of atoms with KB's overlaping orbs in proc 0. Max # of overlaps:      56     220

InitMesh: MESH = 24 x 24 x 192 = 110592
InitMesh: Mesh cutoff (required, used) =   150.000   166.649 Ry
New grid distribution [1]: sub = 2

        iscf     Eharris(eV)        E_KS(eV)     FreeEng(eV)     dDmax    Ef(eV) dHmax(eV)
   scf:    1    -4087.420881    -4245.000433    -4245.010425  0.303560 -4.187526 56.245729
     spin moment: {S} , |S| = {        0.0        0.0    0.00000 }     0.00000
   scf:    2    39598.974282     9994.819851     9994.816376 32.298039 -8.724253792.187713
     spin moment: {S} , |S| = {        0.0        0.0    0.00000 }     0.00000
   scf:    3    -6875.912897    -4238.314582    -4238.314585 32.287669 -2.864494 60.002376
     spin moment: {S} , |S| = {        0.0        0.0    0.00000 }     0.00000
   scf:    4    -4291.495147    -4266.279318    -4266.279336  0.061677 -2.982138 49.949502
     spin moment: {S} , |S| = {        0.0        0.0    0.00000 }     0.00000
   scf:    5    -4338.795694    -4321.733845    -4321.733895  0.133946 -3.711941 10.820363
     spin moment: {S} , |S| = {        0.0        0.0    0.00000 }     0.00000
   scf:    6    -4322.603684    -4322.419681    -4322.419923  0.017105 -3.733795  8.101277
     spin moment: {S} , |S| = {        0.0        0.0    0.00000 }     0.00000
   scf:    7    -4322.474426    -4323.490162    -4323.490701  0.053440 -3.743361  2.407613
     spin moment: {S} , |S| = {        0.0        0.0    0.00000 }     0.00000
   scf:    8    -4312.489394    -4319.808139    -4319.815325  0.049079 -3.608692 11.441572
     spin moment: {S} , |S| = {        0.0        0.0    0.00000 }     0.00000
   scf:    9    -4323.786922    -4323.592095    -4323.592536  0.050049 -3.628737  1.712059
     spin moment: {S} , |S| = {        0.0        0.0    0.00000 }     0.00000
   scf:   10    -4323.621417    -4323.680351    -4323.680562  0.016906 -3.567879  0.854512
     spin moment: {S} , |S| = {        0.0        0.0    0.00000 }     0.00000
   scf:   11    -4323.696749    -4323.699087    -4323.699415  0.003787 -3.569969  0.120371
     spin moment: {S} , |S| = {        0.0        0.0    0.00000 }     0.00000
   scf:   12    -4323.699872    -4323.699648    -4323.699977  0.000571 -3.566050  0.082954
     spin moment: {S} , |S| = {        0.0        0.0    0.00000 }     0.00000
   scf:   13    -4323.699968    -4323.699873    -4323.700190  0.000389 -3.566028  0.019089
     spin moment: {S} , |S| = {        0.0        0.0    0.00000 }     0.00000
   scf:   14    -4323.699930    -4323.699909    -4323.700226  0.000211 -3.565170  0.020979
     spin moment: {S} , |S| = {        0.0        0.0    0.00000 }     0.00000
   scf:   15    -4323.699937    -4323.699926    -4323.700240  0.000094 -3.563819  0.011039
     spin moment: {S} , |S| = {        0.0        0.0    0.00000 }     0.00000
   scf:   16    -4323.699937    -4323.699932    -4323.700246  0.000170 -3.561940  0.008628
     spin moment: {S} , |S| = {        0.0        0.0    0.00000 }     0.00000
   scf:   17    -4323.699937    -4323.699935    -4323.700249  0.000104 -3.560364  0.006494
     spin moment: {S} , |S| = {        0.0        0.0    0.00000 }     0.00000
   scf:   18    -4323.699936    -4323.699936    -4323.700249  0.000027 -3.560073  0.003171
     spin moment: {S} , |S| = {        0.0        0.0    0.00000 }     0.00000
   scf:   19    -4323.699936    -4323.699936    -4323.700249  0.000032 -3.559599  0.001304
     spin moment: {S} , |S| = {        0.0        0.0    0.00000 }     0.00000
   scf:   20    -4323.699936    -4323.699936    -4323.700249  0.000027 -3.559370  0.000410
     spin moment: {S} , |S| = {        0.0        0.0    0.00000 }     0.00000
   scf:   21    -4323.699936    -4323.699936    -4323.700249  0.000004 -3.559450  0.000262
     spin moment: {S} , |S| = {        0.0        0.0    0.00000 }     0.00000
   scf:   22    -4323.699936    -4323.699936    -4323.700249  0.000004 -3.559432  0.000232
     spin moment: {S} , |S| = {        0.0        0.0    0.00000 }     0.00000
   scf:   23    -4323.699936    -4323.699936    -4323.700249  0.000002 -3.559431  0.000141
     spin moment: {S} , |S| = {        0.0        0.0    0.00000 }     0.00000
   scf:   24    -4323.699936    -4323.699936    -4323.700249  0.000003 -3.559399  0.000058
     spin moment: {S} , |S| = {        0.0        0.0    0.00000 }     0.00000

SCF Convergence by DM+H criterion
max |DM_out - DM_in|         :     0.0000026847
max |H_out - H_in|      (eV) :     0.0000578889
SCF cycle converged after 24 iterations

Using DM_out to compute the final energy and forces
No. of atoms with KB's overlaping orbs in proc 0. Max # of overlaps:      56     220

siesta: E_KS(eV) =            -4323.6999

siesta: Atomic forces (eV/Ang):
----------------------------------------
   Tot   -0.000112    0.000065    0.052351
----------------------------------------
   Max    5.400659
   Res    1.460529    sqrt( Sum f_i^2 / 3N )
----------------------------------------
   Max    5.400659    constrained

Stress tensor Voigt[x,y,z,yz,xz,xy] (kbar):        7.31        7.36      -37.81       -0.00        0.00        0.04
(Free)E + p*V (eV/cell)    -4322.6413
Target enthalpy (eV/cell)    -4323.7002

siesta: Stress tensor (static) (eV/Ang**3):
         0.004564    0.000028    0.000003
         0.000028    0.004597   -0.000002
         0.000003   -0.000002   -0.023598

siesta: Pressure (static):          7.71021836  kBar

siesta: Stress tensor (total) (eV/Ang**3):
         0.004564    0.000028    0.000003
         0.000028    0.004597   -0.000002
         0.000003   -0.000002   -0.023598

siesta: Pressure (total):          7.71021836  kBar

                     ====================================
                        Begin CG opt. move =      4
                     ====================================
k-point displ. along   1 input, could be:     0.00    0.50
k-point displ. along   2 input, could be:     0.00    0.50
 Kpoints in:           24 . Kpoints trimmed:           22

siesta: k-grid: Number of k-points = 22
siesta: k-points from Monkhorst-Pack grid
siesta: k-cutoff (effective) =     9.623 Ang
siesta: k-point supercell and displacements
siesta: k-grid:     6     0     0      0.000
siesta: k-grid:     0     6     0      0.000
siesta: k-grid:     0     0     1      0.000

superc: Internal auxiliary supercell:     7 x     7 x     1  =      49
superc: Number of atoms, orbitals, and projectors:    343   4263   3920

outcell: Unit cell vectors (Ang):
        3.207800   -0.000029   -0.000002
       -1.603926    2.778022    0.000002
       -0.000018    0.000011   24.621778

outcell: Cell vector modules (Ang)   :    3.207800    3.207800   24.621778
outcell: Cell angles (23,13,12) (deg):     89.9999     90.0001    120.0011
outcell: Cell volume (Ang**3)        :    219.4119
<dSpData1D:S at geom step 4
  <sparsity:sparsity for geom step 4
    nrows_g=87 nrows=87 sparsity=7.8424 nnzs=59359, refcount: 7>
  <dData1D:(new from dSpData1D) n=59359, refcount: 1>
refcount: 1>
new_DM -- step:     5
Re-using DM from previous geometries...
Number of DMs in history: 1
 DM extrapolation coefficients: 
1   1.00000
New DM after history re-use:
<dSpData2D:SpM extrapolated using coords
  <sparsity:sparsity for geom step 4
    nrows_g=87 nrows=87 sparsity=7.8424 nnzs=59359, refcount: 9>
  <dData2D:(temp array for extrapolation) n=59359 m=2, refcount: 1>
refcount: 1>
Note: For starting DM, Qtot, Tr[D*S] =         42.00000000         42.05919363
No. of atoms with KB's overlaping orbs in proc 0. Max # of overlaps:      56     219

InitMesh: MESH = 24 x 24 x 192 = 110592
InitMesh: Mesh cutoff (required, used) =   150.000   168.060 Ry
New grid distribution [1]: sub = 2

        iscf     Eharris(eV)        E_KS(eV)     FreeEng(eV)     dDmax    Ef(eV) dHmax(eV)
   scf:    1    -4030.552814    -4226.394628    -4226.414638  0.326437 -4.068948 63.864013
     spin moment: {S} , |S| = {        0.0        0.0    0.00000 }     0.00000
   scf:    2    41075.507690    10421.267422    10421.255657 33.847340-10.730077807.538904
     spin moment: {S} , |S| = {        0.0        0.0    0.00000 }     0.00000
   scf:    3    -7092.160365    -4219.253609    -4219.253610 33.851949 -2.563743 66.014985
     spin moment: {S} , |S| = {        0.0        0.0    0.00000 }     0.00000
   scf:    4    -4268.951516    -4245.001796    -4245.001827  0.045802 -2.648272 57.867814
     spin moment: {S} , |S| = {        0.0        0.0    0.00000 }     0.00000
   scf:    5    -4324.476480    -4322.913751    -4322.914600  0.188950 -3.520037  3.918451
     spin moment: {S} , |S| = {        0.0        0.0    0.00000 }     0.00000
   scf:    6    -4322.585597    -4322.780382    -4322.782078  0.006038 -3.519693  4.561239
     spin moment: {S} , |S| = {        0.0        0.0    0.00000 }     0.00000
   scf:    7    -4310.486954    -4319.816453    -4319.816514  0.079754 -3.681450 10.683983
     spin moment: {S} , |S| = {        0.0        0.0    0.00000 }     0.00000
   scf:    8    -4256.011753    -4305.991206    -4306.002715  0.173032 -3.468043 26.429961
     spin moment: {S} , |S| = {        0.0        0.0    0.00000 }     0.00000
   scf:    9    -4327.676749    -4323.425632    -4323.428457  0.112311 -3.503029  3.655680
     spin moment: {S} , |S| = {        0.0        0.0    0.00000 }     0.00000
   scf:   10    -4323.089113    -4323.315605    -4323.318192  0.014041 -3.368483  3.424011
     spin moment: {S} , |S| = {        0.0        0.0    0.00000 }     0.00000
   scf:   11    -4323.436413    -4323.690304    -4323.690701  0.023668 -3.375524  1.169760
     spin moment: {S} , |S| = {        0.0        0.0    0.00000 }     0.00000
   scf:   12    -4323.718308    -4323.705690    -4323.706148  0.001740 -3.370611  0.970011
     spin moment: {S} , |S| = {        0.0        0.0    0.00000 }     0.00000
   scf:   13    -4323.735213    -4323.725775    -4323.726419  0.002464 -3.369407  0.301168
     spin moment: {S} , |S| = {        0.0        0.0    0.00000 }     0.00000
   scf:   14    -4323.727661    -4323.727725    -4323.728461  0.001478 -3.368299  0.016478
     spin moment: {S} , |S| = {        0.0        0.0    0.00000 }     0.00000
   scf:   15    -4323.727774    -4323.727757    -4323.728483  0.000193 -3.366429  0.027948
     spin moment: {S} , |S| = {        0.0        0.0    0.00000 }     0.00000
   scf:   16    -4323.727776    -4323.727772    -4323.728502  0.000308 -3.365491  0.006528
     spin moment: {S} , |S| = {        0.0        0.0    0.00000 }     0.00000
   scf:   17    -4323.727779    -4323.727776    -4323.728504  0.000039 -3.365203  0.008795
     spin moment: {S} , |S| = {        0.0        0.0    0.00000 }     0.00000
   scf:   18    -4323.727778    -4323.727777    -4323.728506  0.000078 -3.364344  0.004219
     spin moment: {S} , |S| = {        0.0        0.0    0.00000 }     0.00000
   scf:   19    -4323.727777    -4323.727777    -4323.728506  0.000062 -3.363263  0.001076
     spin moment: {S} , |S| = {        0.0        0.0    0.00000 }     0.00000
   scf:   20    -4323.727778    -4323.727777    -4323.728506  0.000018 -3.363104  0.000939
     spin moment: {S} , |S| = {        0.0        0.0    0.00000 }     0.00000
   scf:   21    -4323.727778    -4323.727778    -4323.728506  0.000018 -3.362922  0.000514
     spin moment: {S} , |S| = {        0.0        0.0    0.00000 }     0.00000
   scf:   22    -4323.727778    -4323.727778    -4323.728506  0.000005 -3.362917  0.000303
     spin moment: {S} , |S| = {        0.0        0.0    0.00000 }     0.00000
   scf:   23    -4323.727777    -4323.727777    -4323.728506  0.000005 -3.362917  0.000142
     spin moment: {S} , |S| = {        0.0        0.0    0.00000 }     0.00000
   scf:   24    -4323.727777    -4323.727777    -4323.728506  0.000001 -3.362911  0.000085
     spin moment: {S} , |S| = {        0.0        0.0    0.00000 }     0.00000

SCF Convergence by DM+H criterion
max |DM_out - DM_in|         :     0.0000009002
max |H_out - H_in|      (eV) :     0.0000846598
SCF cycle converged after 24 iterations

Using DM_out to compute the final energy and forces
No. of atoms with KB's overlaping orbs in proc 0. Max # of overlaps:      56     219

siesta: E_KS(eV) =            -4323.7278

siesta: Atomic forces (eV/Ang):
----------------------------------------
   Tot   -0.000022    0.000012   -0.012826
----------------------------------------
   Max    8.896077
   Res    2.745946    sqrt( Sum f_i^2 / 3N )
----------------------------------------
   Max    8.896077    constrained

Stress tensor Voigt[x,y,z,yz,xz,xy] (kbar):       -0.06       -0.01      -98.21        0.00       -0.00        0.04
(Free)E + p*V (eV/cell)    -4319.2417
Target enthalpy (eV/cell)    -4323.7285

siesta: Stress tensor (static) (eV/Ang**3):
        -0.000039    0.000027   -0.000000
         0.000027   -0.000008    0.000000
        -0.000000    0.000000   -0.061300

siesta: Pressure (static):         32.76300900  kBar

siesta: Stress tensor (total) (eV/Ang**3):
        -0.000039    0.000027   -0.000000
         0.000027   -0.000008    0.000000
        -0.000000    0.000000   -0.061300

siesta: Pressure (total):         32.76300900  kBar

                     ====================================
                        Begin CG opt. move =      5
                     ====================================
k-point displ. along   1 input, could be:     0.00    0.50
k-point displ. along   2 input, could be:     0.00    0.50
 Kpoints in:           24 . Kpoints trimmed:           22

siesta: k-grid: Number of k-points = 22
siesta: k-points from Monkhorst-Pack grid
siesta: k-cutoff (effective) =     9.620 Ang
siesta: k-point supercell and displacements
siesta: k-grid:     6     0     0      0.000
siesta: k-grid:     0     6     0      0.000
siesta: k-grid:     0     0     1      0.000

superc: Internal auxiliary supercell:     7 x     7 x     1  =      49
superc: Number of atoms, orbitals, and projectors:    343   4263   3920

outcell: Unit cell vectors (Ang):
        3.206715   -0.000025   -0.000002
       -1.603379    2.777084    0.000002
       -0.000016    0.000009   24.674407

outcell: Cell vector modules (Ang)   :    3.206715    3.206715   24.674407
outcell: Cell angles (23,13,12) (deg):     89.9999     90.0001    120.0009
outcell: Cell volume (Ang**3)        :    219.7324
<dSpData1D:S at geom step 5
  <sparsity:sparsity for geom step 5
    nrows_g=87 nrows=87 sparsity=7.7066 nnzs=58331, refcount: 7>
  <dData1D:(new from dSpData1D) n=58331, refcount: 1>
refcount: 1>
new_DM -- step:     6
Re-using DM from previous geometries...
Number of DMs in history: 1
 DM extrapolation coefficients: 
1   1.00000
New DM after history re-use:
<dSpData2D:SpM extrapolated using coords
  <sparsity:sparsity for geom step 5
    nrows_g=87 nrows=87 sparsity=7.7066 nnzs=58331, refcount: 9>
  <dData2D:(temp array for extrapolation) n=58331 m=2, refcount: 1>
refcount: 1>
Note: For starting DM, Qtot, Tr[D*S] =         42.00000000         41.95115475
No. of atoms with KB's overlaping orbs in proc 0. Max # of overlaps:      56     211

InitMesh: MESH = 24 x 24 x 192 = 110592
InitMesh: Mesh cutoff (required, used) =   150.000   167.344 Ry
New grid distribution [1]: sub = 2

        iscf     Eharris(eV)        E_KS(eV)     FreeEng(eV)     dDmax    Ef(eV) dHmax(eV)
   scf:    1    -4309.165925    -4319.144851    -4319.144858  0.065188 -2.962313 14.203486
     spin moment: {S} , |S| = {        0.0        0.0    0.00000 }     0.00000
   scf:    2     3363.010282    -1809.255137    -1809.258104  2.082312 -7.530494329.612413
     spin moment: {S} , |S| = {        0.0        0.0    0.00000 }     0.00000
   scf:    3    -4412.654111    -4323.704463    -4323.705082  2.094053 -3.396523  2.638989
     spin moment: {S} , |S| = {        0.0        0.0    0.00000 }     0.00000
   scf:    4    -4323.800431    -4323.872802    -4323.873042  0.013737 -3.374564  0.911875
     spin moment: {S} , |S| = {        0.0        0.0    0.00000 }     0.00000
   scf:    5    -4323.896478    -4323.894870    -4323.895282  0.005435 -3.423801  0.213994
     spin moment: {S} , |S| = {        0.0        0.0    0.00000 }     0.00000
   scf:    6    -4323.895570    -4323.895745    -4323.896134  0.000872 -3.436851  0.186657
     spin moment: {S} , |S| = {        0.0        0.0    0.00000 }     0.00000
   scf:    7    -4323.896263    -4323.896799    -4323.897215  0.001603 -3.456524  0.096548
     spin moment: {S} , |S| = {        0.0        0.0    0.00000 }     0.00000
   scf:    8    -4323.897164    -4323.897114    -4323.897516  0.000444 -3.454219  0.022081
     spin moment: {S} , |S| = {        0.0        0.0    0.00000 }     0.00000
   scf:    9    -4323.897202    -4323.897161    -4323.897565  0.000194 -3.454129  0.010655
     spin moment: {S} , |S| = {        0.0        0.0    0.00000 }     0.00000
   scf:   10    -4323.897205    -4323.897186    -4323.897593  0.000218 -3.453680  0.013043
     spin moment: {S} , |S| = {        0.0        0.0    0.00000 }     0.00000
   scf:   11    -4323.897194    -4323.897191    -4323.897598  0.000103 -3.453903  0.008096
     spin moment: {S} , |S| = {        0.0        0.0    0.00000 }     0.00000
   scf:   12    -4323.897193    -4323.897192    -4323.897599  0.000100 -3.454197  0.002099
     spin moment: {S} , |S| = {        0.0        0.0    0.00000 }     0.00000
   scf:   13    -4323.897192    -4323.897192    -4323.897599  0.000008 -3.454259  0.002243
     spin moment: {S} , |S| = {        0.0        0.0    0.00000 }     0.00000
   scf:   14    -4323.897193    -4323.897193    -4323.897600  0.000033 -3.454424  0.001408
     spin moment: {S} , |S| = {        0.0        0.0    0.00000 }     0.00000
   scf:   15    -4323.897193    -4323.897193    -4323.897600  0.000009 -3.454499  0.000859
     spin moment: {S} , |S| = {        0.0        0.0    0.00000 }     0.00000
   scf:   16    -4323.897193    -4323.897193    -4323.897600  0.000014 -3.454597  0.000744
     spin moment: {S} , |S| = {        0.0        0.0    0.00000 }     0.00000
   scf:   17    -4323.897193    -4323.897193    -4323.897600  0.000007 -3.454684  0.000337
     spin moment: {S} , |S| = {        0.0        0.0    0.00000 }     0.00000
   scf:   18    -4323.897193    -4323.897193    -4323.897600  0.000005 -3.454769  0.000271
     spin moment: {S} , |S| = {        0.0        0.0    0.00000 }     0.00000
   scf:   19    -4323.897193    -4323.897193    -4323.897600  0.000011 -3.454865  0.000184
     spin moment: {S} , |S| = {        0.0        0.0    0.00000 }     0.00000
   scf:   20    -4323.897193    -4323.897193    -4323.897600  0.000002 -3.454877  0.000182
     spin moment: {S} , |S| = {        0.0        0.0    0.00000 }     0.00000
   scf:   21    -4323.897193    -4323.897193    -4323.897600  0.000001 -3.454887  0.000135
     spin moment: {S} , |S| = {        0.0        0.0    0.00000 }     0.00000
   scf:   22    -4323.897193    -4323.897193    -4323.897600  0.000001 -3.454886  0.000133
     spin moment: {S} , |S| = {        0.0        0.0    0.00000 }     0.00000
   scf:   23    -4323.897193    -4323.897193    -4323.897600  0.000002 -3.454886  0.000066
     spin moment: {S} , |S| = {        0.0        0.0    0.00000 }     0.00000

SCF Convergence by DM+H criterion
max |DM_out - DM_in|         :     0.0000021602
max |H_out - H_in|      (eV) :     0.0000662316
SCF cycle converged after 23 iterations

[...]
   53.0771   55.2881   56.2223   56.2374   58.5807   58.6330   64.5972   70.0190   70.0592   73.1213
   73.1741   77.7239   86.3261   86.3572   98.3079  104.1888  104.2937
  15  2  -59.1290  -59.1286  -35.6328  -35.6316  -35.6062  -35.4490  -35.3789  -35.3784  -23.1176  -23.1070
         -11.9403  -11.0788  -11.0700   -8.1105   -8.0972   -7.7142   -7.7063   -5.9305   -5.9282   -4.9071
   -1.0187   -0.7681   -0.7656    0.2621    0.2641    0.6383    2.0759    2.0772    2.7757    3.4437
    3.9204    3.9225    7.4052    7.4145    8.4392    8.8687   10.0105   10.0119   10.8956   12.1700
   12.3040   12.3122   16.5459   16.5539   17.6445   17.6497   21.1566   21.1645   22.2096   23.2892
   23.2932   23.4428   26.7548   30.5346   30.5475   30.7455   32.6864   32.7018   33.7013   34.0723
   34.0929   35.0786   37.1069   37.1170   41.3230   42.1655   47.3624   48.0361   48.0408   53.0554
   53.0771   55.2881   56.2223   56.2374   58.5807   58.6330   64.5972   70.0190   70.0592   73.1213
   73.1741   77.7239   86.3261   86.3572   98.3079  104.1888  104.2937
  16  1  -59.1419  -59.1255  -35.6905  -35.6505  -35.5049  -35.4342  -35.3650  -35.3397  -23.1624  -23.1517
         -12.1482  -11.1549  -11.0846   -8.4076   -8.2381   -7.2064   -7.1138   -6.1324   -5.2884   -4.9566
   -2.3490   -0.7462    0.0132    0.2387    0.5476    0.7500    1.1877    1.9290    2.5158    3.2106
    3.4038    3.8327    7.0556    7.1228    8.4481    9.7871   10.2484   11.4272   11.6359   12.2433
   13.1471   13.8768   16.3547   16.9082   17.4629   18.2495   19.2444   21.1834   21.5970   23.9302
   24.8360   26.1493   27.7012   28.3913   31.0103   31.4514   32.4955   32.6534   33.7040   34.5880
   35.8818   37.3155   38.0291   39.6682   41.2388   41.9408   45.0417   46.7765   50.2604   51.4259
   52.1252   54.8912   56.2240   57.8250   59.8014   61.9491   65.9169   66.3643   67.9652   73.6836
   78.4702   80.1523   83.9373   86.6499   94.0381  108.2188  122.8119
  16  2  -59.1419  -59.1255  -35.6905  -35.6505  -35.5049  -35.4342  -35.3650  -35.3397  -23.1624  -23.1517
         -12.1482  -11.1549  -11.0846   -8.4076   -8.2381   -7.2064   -7.1138   -6.1324   -5.2884   -4.9566
   -2.3490   -0.7462    0.0132    0.2387    0.5476    0.7500    1.1877    1.9290    2.5158    3.2106
    3.4038    3.8327    7.0556    7.1228    8.4481    9.7871   10.2484   11.4272   11.6359   12.2433
   13.1471   13.8768   16.3547   16.9082   17.4629   18.2495   19.2444   21.1834   21.5970   23.9302
   24.8360   26.1493   27.7012   28.3913   31.0103   31.4514   32.4955   32.6534   33.7040   34.5880
   35.8818   37.3155   38.0291   39.6682   41.2388   41.9408   45.0417   46.7765   50.2604   51.4259
   52.1252   54.8912   56.2240   57.8250   59.8014   61.9491   65.9169   66.3643   67.9652   73.6836
   78.4702   80.1523   83.9373   86.6499   94.0381  108.2188  122.8119
  17  1  -59.1419  -59.1255  -35.6905  -35.6505  -35.5049  -35.4342  -35.3650  -35.3397  -23.1624  -23.1517
         -12.1482  -11.1549  -11.0846   -8.4076   -8.2381   -7.2064   -7.1138   -6.1324   -5.2884   -4.9566
   -2.3490   -0.7462    0.0132    0.2387    0.5476    0.7500    1.1877    1.9290    2.5158    3.2106
    3.4038    3.8327    7.0556    7.1228    8.4481    9.7871   10.2484   11.4272   11.6359   12.2433
   13.1471   13.8768   16.3547   16.9082   17.4629   18.2495   19.2444   21.1834   21.5970   23.9302
   24.8360   26.1493   27.7012   28.3913   31.0103   31.4514   32.4955   32.6534   33.7040   34.5880
   35.8818   37.3155   38.0291   39.6682   41.2388   41.9408   45.0417   46.7765   50.2604   51.4259
   52.1252   54.8912   56.2240   57.8250   59.8014   61.9491   65.9169   66.3643   67.9651   73.6835
   78.4702   80.1523   83.9373   86.6499   94.0381  108.2189  122.8120
  17  2  -59.1419  -59.1255  -35.6905  -35.6505  -35.5049  -35.4342  -35.3650  -35.3397  -23.1624  -23.1517
         -12.1482  -11.1549  -11.0846   -8.4076   -8.2381   -7.2064   -7.1138   -6.1324   -5.2884   -4.9566
   -2.3490   -0.7462    0.0132    0.2387    0.5476    0.7500    1.1877    1.9290    2.5158    3.2106
    3.4038    3.8327    7.0556    7.1228    8.4481    9.7871   10.2484   11.4272   11.6359   12.2433
   13.1471   13.8768   16.3547   16.9082   17.4629   18.2495   19.2444   21.1834   21.5970   23.9302
   24.8360   26.1493   27.7012   28.3913   31.0103   31.4514   32.4955   32.6534   33.7040   34.5880
   35.8818   37.3155   38.0291   39.6682   41.2388   41.9408   45.0417   46.7765   50.2604   51.4259
   52.1252   54.8912   56.2240   57.8250   59.8014   61.9491   65.9169   66.3643   67.9651   73.6835
   78.4702   80.1523   83.9373   86.6499   94.0381  108.2189  122.8120
  18  1  -59.1417  -59.1255  -35.6917  -35.6497  -35.5052  -35.4349  -35.3645  -35.3401  -23.1620  -23.1513
         -12.1473  -11.1545  -11.0838   -8.4088   -8.2391   -7.2061   -7.1144   -6.1313   -5.2921   -4.9568
   -2.3503   -0.7445    0.0142    0.2369    0.5489    0.7493    1.1877    1.9311    2.5173    3.2133
    3.4096    3.8324    7.0621    7.1289    8.4397    9.7859   10.2416   11.4275   11.6388   12.2493
   13.1387   13.8626   16.3503   16.8959   17.4612   18.2486   19.2356   21.1906   21.6020   23.9409
   24.8299   26.1433   27.7013   28.3863   31.0132   31.4446   32.4961   32.6517   33.7029   34.5738
   35.8667   37.3132   38.0458   39.6866   41.2301   41.9326   45.0393   46.7635   50.2524   51.4577
   52.1334   54.8896   56.2266   57.8127   59.7999   61.9040   65.9098   66.3676   67.9856   73.6850
   78.4852   80.1738   83.9314   86.6261   94.0216  108.2913  122.7916
  18  2  -59.1417  -59.1255  -35.6917  -35.6497  -35.5052  -35.4349  -35.3645  -35.3401  -23.1620  -23.1513
         -12.1473  -11.1545  -11.0838   -8.4088   -8.2391   -7.2061   -7.1144   -6.1313   -5.2921   -4.9568
   -2.3503   -0.7445    0.0142    0.2369    0.5489    0.7493    1.1877    1.9311    2.5173    3.2133
    3.4096    3.8324    7.0621    7.1289    8.4397    9.7859   10.2416   11.4275   11.6388   12.2493
   13.1387   13.8626   16.3503   16.8959   17.4612   18.2486   19.2356   21.1906   21.6020   23.9409
   24.8299   26.1433   27.7013   28.3863   31.0132   31.4446   32.4961   32.6517   33.7029   34.5738
   35.8667   37.3132   38.0458   39.6866   41.2301   41.9326   45.0393   46.7635   50.2524   51.4577
   52.1334   54.8896   56.2266   57.8127   59.7999   61.9040   65.9098   66.3676   67.9856   73.6850
   78.4852   80.1738   83.9314   86.6261   94.0216  108.2913  122.7916
  19  1  -59.1395  -59.1270  -35.7390  -35.6789  -35.4627  -35.4290  -35.3718  -35.3042  -23.1620  -23.1512
         -12.1928  -11.1654  -10.9900   -8.8040   -8.3713   -6.9945   -6.8488   -6.2890   -4.9443   -4.4334
   -3.5284   -0.0441    0.2130    0.6288    0.6342    0.9723    1.0430    1.5171    1.8149    3.5057
    3.8170    4.0141    6.2107    6.3057    7.7388    9.7068   10.1720   11.5071   12.5980   12.6104
   13.9978   15.9832   16.3035   16.7604   17.1417   18.0482   18.7573   20.8852   23.3650   23.7120
   25.1069   26.7107   26.7744   29.1005   31.0576   31.4820   31.8119   33.1658   34.9721   35.3438
   36.1225   37.4038   39.0356   40.3416   43.6038   44.9758   45.3165   45.8200   47.6383   47.7167
   52.3000   52.5649   59.5551   60.3319   63.1215   63.3001   63.5291   68.1406   70.9140   75.7915
   80.8765   83.3971   84.5476   87.4795   98.0867  115.5921  124.3782
  19  2  -59.1395  -59.1270  -35.7390  -35.6789  -35.4627  -35.4290  -35.3718  -35.3042  -23.1620  -23.1512
         -12.1928  -11.1654  -10.9900   -8.8040   -8.3713   -6.9945   -6.8488   -6.2890   -4.9443   -4.4334
   -3.5284   -0.0441    0.2130    0.6288    0.6342    0.9723    1.0430    1.5171    1.8149    3.5057
    3.8170    4.0141    6.2107    6.3057    7.7388    9.7068   10.1720   11.5071   12.5980   12.6104
   13.9978   15.9832   16.3035   16.7604   17.1417   18.0482   18.7573   20.8852   23.3650   23.7120
   25.1069   26.7107   26.7744   29.1005   31.0576   31.4820   31.8119   33.1658   34.9721   35.3438
   36.1225   37.4038   39.0356   40.3416   43.6038   44.9758   45.3165   45.8200   47.6383   47.7167
   52.3000   52.5649   59.5551   60.3319   63.1215   63.3001   63.5291   68.1406   70.9140   75.7915
   80.8765   83.3971   84.5476   87.4795   98.0867  115.5921  124.3782
  20  1  -59.1417  -59.1255  -35.6917  -35.6497  -35.5052  -35.4349  -35.3645  -35.3401  -23.1620  -23.1513
         -12.1473  -11.1545  -11.0838   -8.4088   -8.2391   -7.2061   -7.1144   -6.1313   -5.2921   -4.9568
   -2.3503   -0.7445    0.0142    0.2369    0.5489    0.7493    1.1877    1.9311    2.5173    3.2133
    3.4096    3.8324    7.0621    7.1289    8.4397    9.7859   10.2416   11.4275   11.6388   12.2493
   13.1387   13.8626   16.3503   16.8959   17.4612   18.2486   19.2356   21.1906   21.6020   23.9409
   24.8299   26.1433   27.7013   28.3863   31.0132   31.4446   32.4961   32.6517   33.7029   34.5738
   35.8667   37.3132   38.0458   39.6866   41.2301   41.9326   45.0393   46.7635   50.2524   51.4577
   52.1334   54.8896   56.2266   57.8127   59.7999   61.9040   65.9098   66.3676   67.9856   73.6850
   78.4852   80.1738   83.9314   86.6261   94.0216  108.2913  122.7916
  20  2  -59.1417  -59.1255  -35.6917  -35.6497  -35.5052  -35.4349  -35.3645  -35.3401  -23.1620  -23.1513
         -12.1473  -11.1545  -11.0838   -8.4088   -8.2391   -7.2061   -7.1144   -6.1313   -5.2921   -4.9568
   -2.3503   -0.7445    0.0142    0.2369    0.5489    0.7493    1.1877    1.9311    2.5173    3.2133
    3.4096    3.8324    7.0621    7.1289    8.4397    9.7859   10.2416   11.4275   11.6388   12.2493
   13.1387   13.8626   16.3503   16.8959   17.4612   18.2486   19.2356   21.1906   21.6020   23.9409
   24.8299   26.1433   27.7013   28.3863   31.0132   31.4446   32.4961   32.6517   33.7029   34.5738
   35.8667   37.3132   38.0458   39.6866   41.2301   41.9326   45.0393   46.7635   50.2524   51.4577
   52.1334   54.8896   56.2266   57.8127   59.7999   61.9040   65.9098   66.3676   67.9856   73.6850
   78.4852   80.1738   83.9314   86.6261   94.0216  108.2913  122.7916
  21  1  -59.1419  -59.1255  -35.6905  -35.6505  -35.5049  -35.4342  -35.3650  -35.3397  -23.1624  -23.1517
         -12.1482  -11.1549  -11.0846   -8.4076   -8.2381   -7.2064   -7.1138   -6.1324   -5.2884   -4.9566
   -2.3490   -0.7462    0.0132    0.2387    0.5476    0.7500    1.1877    1.9290    2.5158    3.2106
    3.4038    3.8327    7.0556    7.1228    8.4481    9.7871   10.2484   11.4272   11.6359   12.2433
   13.1471   13.8768   16.3547   16.9082   17.4629   18.2495   19.2444   21.1834   21.5970   23.9302
   24.8360   26.1493   27.7012   28.3913   31.0103   31.4514   32.4955   32.6534   33.7040   34.5880
   35.8818   37.3155   38.0291   39.6682   41.2388   41.9408   45.0417   46.7765   50.2604   51.4259
   52.1252   54.8912   56.2240   57.8250   59.8014   61.9491   65.9169   66.3643   67.9651   73.6835
   78.4702   80.1523   83.9373   86.6499   94.0381  108.2189  122.8120
  21  2  -59.1419  -59.1255  -35.6905  -35.6505  -35.5049  -35.4342  -35.3650  -35.3397  -23.1624  -23.1517
         -12.1482  -11.1549  -11.0846   -8.4076   -8.2381   -7.2064   -7.1138   -6.1324   -5.2884   -4.9566
   -2.3490   -0.7462    0.0132    0.2387    0.5476    0.7500    1.1877    1.9290    2.5158    3.2106
    3.4038    3.8327    7.0556    7.1228    8.4481    9.7871   10.2484   11.4272   11.6359   12.2433
   13.1471   13.8768   16.3547   16.9082   17.4629   18.2495   19.2444   21.1834   21.5970   23.9302
   24.8360   26.1493   27.7012   28.3913   31.0103   31.4514   32.4955   32.6534   33.7040   34.5880
   35.8818   37.3155   38.0291   39.6682   41.2388   41.9408   45.0417   46.7765   50.2604   51.4259
   52.1252   54.8912   56.2240   57.8250   59.8014   61.9491   65.9169   66.3643   67.9651   73.6835
   78.4702   80.1523   83.9373   86.6499   94.0381  108.2189  122.8120
  22  1  -59.1397  -59.1270  -35.7374  -35.6795  -35.4622  -35.4285  -35.3720  -35.3038  -23.1629  -23.1521
         -12.1946  -11.1666  -10.9915   -8.8016   -8.3698   -6.9931   -6.8478   -6.2905   -4.9443   -4.4247
   -3.5298   -0.0444    0.2140    0.6315    0.6333    0.9734    1.0389    1.5135    1.8074    3.4971
    3.8072    4.0175    6.2046    6.3005    7.7485    9.7062   10.1836   11.5039   12.5882   12.6105
   14.0047   16.0115   16.3269   16.7865   17.1337   18.0632   18.7554   20.8747   23.3529   23.7112
   25.1060   26.7221   26.7825   29.0994   31.0540   31.4863   31.8130   33.1615   34.9691   35.3454
   36.0996   37.4061   39.0429   40.3878   43.5830   44.9681   45.3582   45.8293   47.5867   47.7173
   52.3359   52.5313   59.5436   60.3572   63.1261   63.3280   63.5704   68.0794   70.9176   75.8402
   80.8783   83.3716   84.5890   87.4268   98.0316  115.3021  124.3967
  22  2  -59.1397  -59.1270  -35.7374  -35.6795  -35.4622  -35.4285  -35.3720  -35.3038  -23.1629  -23.1521
         -12.1946  -11.1666  -10.9915   -8.8016   -8.3698   -6.9931   -6.8478   -6.2905   -4.9443   -4.4247
   -3.5298   -0.0444    0.2140    0.6315    0.6333    0.9734    1.0389    1.5135    1.8074    3.4971
    3.8072    4.0175    6.2046    6.3005    7.7485    9.7062   10.1836   11.5039   12.5882   12.6105
   14.0047   16.0115   16.3269   16.7865   17.1337   18.0632   18.7554   20.8747   23.3529   23.7112
   25.1060   26.7221   26.7825   29.0994   31.0540   31.4863   31.8130   33.1615   34.9691   35.3454
   36.0996   37.4061   39.0429   40.3878   43.5830   44.9681   45.3582   45.8293   47.5867   47.7173
   52.3359   52.5313   59.5436   60.3572   63.1261   63.3280   63.5704   68.0794   70.9176   75.8402
   80.8783   83.3716   84.5890   87.4268   98.0316  115.3021  124.3967
siesta: Fermi energy =      -1.704704 eV

siesta: Program's energy decomposition (eV):
siesta: Ebs     =      -921.118868
siesta: Eions   =      6473.223125
siesta: Ena     =       984.888889
siesta: Ekin    =      2027.840785
siesta: Enl     =      -120.785971
siesta: Eso     =         0.000000
siesta: Edftu   =         0.000000
siesta: DEna    =        32.392423
siesta: DUscf   =         2.752401
siesta: DUext   =         0.000000
siesta: Ex      =      -731.344522
siesta: Ec      =       -55.362495
siesta: Exc     =      -786.707017
siesta: EbV     =         0.000000
siesta: eta*DQ  =         0.000000
siesta: Emadel  =         0.000000
siesta: Emeta   =         0.000000
siesta: Emolmec =         0.000000
siesta: Ekinion =         0.000000
siesta: Eharris =     -4332.841616
siesta: Etot    =     -4332.841616
siesta: FreeEng =     -4332.849233

siesta: Final energy (eV):
siesta:  Band Struct. =    -921.118868
siesta:       Kinetic =    2027.840785
siesta:       Hartree =   21383.187083
siesta:         Edftu =       0.000000
siesta:       Eso     =       0.000000
siesta:    Ext. field =       0.000000
siesta:         Exch. =    -731.344522
siesta:         Corr. =     -55.362495
siesta:     Bulk bias =       0.000000
siesta:   Exch.-corr. =    -786.707017
siesta:  Ion-electron =  -44835.247864
siesta:       Ion-ion =   17878.085397
siesta:       Ekinion =       0.000000
siesta: D3 dispersion =       0.000000
siesta:         Total =   -4332.841616
siesta:         Fermi =      -1.704704

siesta: Stress tensor (static) (eV/Ang**3):
siesta:     0.000129    0.000065   -0.000028
siesta:     0.000065    0.000204    0.000016
siesta:    -0.000028    0.000016   -0.000235

siesta: Constrained stress tensor (static) (eV/Ang**3):
siesta:     0.000129    0.000065   -0.000028
siesta:     0.000065    0.000204    0.000016
siesta:    -0.000028    0.000016   -0.000235

siesta: Cell volume =        190.331315 Ang**3

siesta: Pressure (static):
siesta:                Solid            Molecule  Units
siesta:          -0.00000036          0.00000226  Ry/Bohr**3
siesta:          -0.00003269          0.00020759  eV/Ang**3
siesta:          -0.05237418          0.33259030  kBar
(Free)E+ p_basis*V_orbitals  =       -4329.561757
(Free)Eharris+ p_basis*V_orbitals  =       -4329.561757

siesta: Electric dipole (a.u.)  =    0.000000   -0.000000   -0.000790
siesta: Electric dipole (Debye) =    0.000000   -0.000000   -0.002009

dhscf: Vacuum level (max, mean) =   -1.350817   -1.380221 eV

cite: Please see "Ti2CTx.bib" for an exhaustive BiBTeX file.
cite: Please clearly indicate Siesta version in published work: 5.2.0-12-gaf738a07d
cite: This calculation has made use of the following articles
cite: which are encouraged to be cited in a published work.
        Primary SIESTA paper
          DOI: www.doi.org/10.1088/0953-8984/14/11/302


timer: Elapsed wall time (sec) =     754.220
timer: CPU execution times (sec):

Routine            Calls   Time/call    Tot.time        %
siesta                 1     754.157     754.157   100.00
Setup                  1       0.272       0.272     0.04
bands                  1       0.000       0.000     0.00
KSV_init               1       0.000       0.000     0.00
IterGeom              61      12.356     753.728    99.94
geom_init             61       1.186      72.322     9.59
state_init            61       0.133       8.115     1.08
hsparse               61       0.010       0.585     0.08
overlap               61       0.116       7.104     0.94
Setup_H0              61       0.764      46.589     6.18
naefs                122       0.000       0.017     0.00
dnaefs               122       0.000       0.009     0.00
MolMec               122       0.000       0.000     0.00
kinefsm              122       0.063       7.667     1.02
nlefsm               122       0.227      27.692     3.67
DHSCF_Init            61       0.245      14.955     1.98
DHSCF1                61       0.012       0.735     0.10
InitMesh              61       0.012       0.732     0.10
INITMESH              61       0.000       0.000     0.00
DHSCF2                61       0.233      14.219     1.89
REMESH                61       0.038       2.318     0.31
REORD               6068       0.000       0.758     0.10
PHION                 61       0.164      10.004     1.33
COMM_BSC           10186       0.000       0.928     0.12
POISON              1304       0.006       8.315     1.10
fft                 2608       0.003       7.405     0.98
setup_H             1181       0.290     342.639    45.43
DHSCF               1243       0.317     393.580    52.19
DHSCF3              1243       0.290     359.864    47.72
rhoofd              1243       0.128     159.073    21.09
XC                  1243       0.035      43.197     5.73
GXC-CellXC          1243       0.034      42.775     5.67
gridxc@cellXC       1243       0.034      42.769     5.67
vmat                1242       0.118     146.509    19.43
IterSCF             1120       0.559     625.554    82.95
compute_dm          1120       0.265     297.098    39.39
diagon              1120       0.265     296.730    39.35
c-eigval           49280       0.002      93.499    12.40
c-buildHS          49280       0.001      26.521     3.52
cdiag              98560       0.002     185.035    24.54
cdiag1             98560       0.000      12.415     1.65
cdiag2             98560       0.000      45.498     6.03
cdiag3             98560       0.001     121.701    16.14
c-eigvec           49280       0.003     144.594    19.17
cdiag4             49280       0.000       4.442     0.59
c-buildD           49280       0.001      57.868     7.67
MIXER               1059       0.002       1.951     0.26
PostSCF               61       0.915      55.795     7.40
FINAL_HF              61       0.914      55.757     7.39
DHSCF4                61       0.553      33.714     4.47
dfscf                 61       0.524      31.959     4.24
overfsm               61       0.010       0.628     0.08
writeHSX              61       0.001       0.057     0.01
state_analysis        61       0.000       0.013     0.00
siesta_move           61       0.000       0.004     0.00
Analysis               1       0.156       0.156     0.02
optical                1       0.000       0.000     0.00
  

>> End of run:  20-JAN-2025   4:24:35
Job completed
