Executable      : siesta
Version         : 5.2.0-12-gaf738a07d
Architecture    : x86_64
Compiler version: GNU-13.2.0
Compiler flags  : -fallow-argument-mismatch -O3 -march=native
Parallelisations: MPI
Native ELPA support
ELSI support. Solvers:
   ELPA (internal) 
   NTPoly
   OMM
DFT-D3 support

Runtime information:
* Directory : /media/hakan/New Volume1/dftLiteratur/malzemeML/mxene_project/results/dft/stability
* Running in serial mode (only 1 MPI rank).
>> Start of run:  20-JAN-2025   4:57:55

                           *********************** 
                           *  WELCOME TO SIESTA  * 
                           *********************** 

 NOTE: Siesta V5 introduces some new defaults for basis-set generation
 NOTE: which might lead to slightly different numerical results.
 NOTE: Please see the manual for full details and compatibility measures.


reinit: Reading from standard input
reinit: Dumping input in INPUT_TMP.47645
************************** Dump of input data file ****************************
SystemName	Ti2NTx
SystemLabel	Ti2NTx
DM.InitialSpinPol	0.2
DM.MixingWeight	0.1
DM.NumberPulay	5
DM.Tolerance	1.0E-4
DM.UseSaveDM	True
ElectronicTemperature	300 K
MD.ConstantVolume	False
MD.MaxForceTol	0.04 eV/Ang
MD.MaxStressTol	1.0 GPa
MD.NumCGsteps	100
MD.TypeOfRun	CG
MD.VariableCell	True
MaxSCFIterations	200
PAO.BasisSize	DZP
PAO.EnergyShift	0.01 Ry
PAO.SoftDefault	True
PAO.SplitNorm	0.15
SCF.DM.Tolerance	1.0E-4
SCF.EDM.Tolerance	1.0E-4 eV
SCF.H.Tolerance	1.0E-4 eV
SaveDeltaRho	True
SaveElectrostaticPotential	True
SaveRho	True
SolutionMethod	diagon
WriteDenchar	True
WriteEigenvalues	True
XC.functional	GGA
XML.Write	True
SCFMustConverge	True
Spin	polarized
XC.functional	GGA
XC.authors	PW91
MeshCutoff	2040.8539518275434	eV
PAO.EnergyShift	0.01	eV
NumberOfSpecies	4
NumberOfAtoms	7
%block ChemicalSpecieslabel
    1 22 Ti.1 Ti.1.psml
    2 7 N.2 N.2.psml
    3 8 O.3 O.3.psml
    4 1 H.4 H.4.psml
%endblock ChemicalSpecieslabel
%block PAO.BasisSizes
    Ti.1	DZP
    N.2	DZP
    O.3	DZP
    H.4	DZP
%endblock PAO.BasisSizes
LatticeConstant	1.0 Ang
%block LatticeVectors
    3.2 0.0 0.0
    -1.6 2.7712812921102037 0.0
    0.0 0.0 25.0
%endblock LatticeVectors
AtomicCoordinatesFormat	Ang
%block AtomicCoordinatesAndAtomicSpecies
    -1.480297366166875e-17 1.8475208614068024 10.0 1
    1.5999999999999999 0.9237604307034012 11.25 1
    0.0 0.0 12.5 2
    -1.480297366166875e-17 1.8475208614068024 13.750000000000002 3
    1.5999999999999999 0.9237604307034012 8.75 3
    -1.480297366166875e-17 1.8475208614068024 15.0 4
    1.5999999999999999 0.9237604307034012 7.5 4
%endblock AtomicCoordinatesAndAtomicSpecies
%block DM.InitSpin
%endblock DM.InitSpin
#KPoint grid
%block kgrid_Monkhorst_Pack
     6       0       0  0.0
     0       6       0  0.0
     0       0       1  0.0
%endblock kgrid_Monkhorst_Pack
************************** End of input data file *****************************
*** WARNING:  FDF module: fdf_read: block DM.InitSpin is empty...

reinit: -----------------------------------------------------------------------
reinit: System Name: Ti2NTx
reinit: -----------------------------------------------------------------------
reinit: System Label: Ti2NTx
reinit: -----------------------------------------------------------------------

NOTE on units for spin output: 
{S} is the spin magnetic moment, in units of the Bohr magneton,
assuming a g-factor for the electron spin of exactly 2.
The spin magnetic moment is then numerically equal to the charge inbalance,
in units of electrons, between the spin-up and -down channels.


initatom: Reading input for the pseudopotentials and atomic orbitals ----------
Species number:   1 Atomic number:   22 Label: Ti.1
Species number:   2 Atomic number:    7 Label: N.2
Species number:   3 Atomic number:    8 Label: O.3
Species number:   4 Atomic number:    1 Label: H.4

Ground state valence configuration (from tables):   4s02  4p00  3d02  4f00
Ground state valence configuration (from tables):   2s02  2p03  3d00  4f00
Ground state valence configuration (from tables):   2s02  2p04  3d00  4f00
Ground state valence configuration (from tables):   1s01  2p00  3d00  4f00

---- Processing specs for species: Ti.1
Reading pseudopotential information in PSML from:
  Ti.1.psml
PSML file version: 1.1
Using libxc ids:  101 130
GGA--PBE XC_GGA_X_PBE--XC_GGA_C_PBE pb
PSML uuid: caed23e0-be41-11e7-4603-0bd897f88bea
Semicore shell(s) with  8 electrons included in the valence for Ti.1

---- Processing specs for species: N.2
Reading pseudopotential information in PSML from:
  N.2.psml
PSML file version: 1.1
Using libxc ids:  101 130
GGA--PBE XC_GGA_X_PBE--XC_GGA_C_PBE pb
PSML uuid: 31bde650-be41-11e7-78a7-66593edf4b14

---- Processing specs for species: O.3
Reading pseudopotential information in PSML from:
  O.3.psml
PSML file version: 1.1
Using libxc ids:  101 130
GGA--PBE XC_GGA_X_PBE--XC_GGA_C_PBE pb
PSML uuid: 3cff85a0-be41-11e7-6c5c-1b1fe64d18ef

---- Processing specs for species: H.4
Reading pseudopotential information in PSML from:
  H.4.psml
PSML file version: 1.1
Using libxc ids:  101 130
GGA--PBE XC_GGA_X_PBE--XC_GGA_C_PBE pb
PSML uuid: f95fa9b0-be40-11e7-634a-9594ffff953f
resizes: Read basis size for species Ti.1 = dzp                 
resizes: Read basis size for species N.2 = dzp                 
resizes: Read basis size for species O.3 = dzp                 
resizes: Read basis size for species H.4 = dzp                 

---- Pseudopotential check for Ti

Pseudized shells:
3s( 2.00) rc: 1.36
3p( 6.00) rc: 1.31
3d( 2.00) rc: 1.66
Valence configuration for ps generation: 3s:3p:3d:4s: Total charge:  12.000000
Semicore shell(s): 3s 3p
Fallback to non-perturbative polarization scheme for Ti.1
Please see the manual if this is not desired in principle

---- Pseudopotential check for N 

Pseudized shells:
2s( 2.00) rc: 1.21
2p( 3.00) rc: 1.36
Valence configuration for ps generation: 2s:2p: Total charge:   5.000000

---- Pseudopotential check for O 

Pseudized shells:
2s( 2.00) rc: 1.36
2p( 4.00) rc: 1.46
3d( 0.00) rc: 1.26
Valence configuration for ps generation: 2s:2p: Total charge:   6.000000

---- Pseudopotential check for H 

Pseudized shells:
1s( 1.00) rc: 1.01
2p( 0.00) rc: 0.71
Valence configuration for ps generation: 1s: Total charge:   1.000000
For Ti.1, standard SIESTA heuristics set lmxkb to 3
 (one more than the basis l, including polarization orbitals).
Use PS.lmax or PS.KBprojectors blocks to override.
For N.2, standard SIESTA heuristics set lmxkb to 3
 (one more than the basis l, including polarization orbitals).
Use PS.lmax or PS.KBprojectors blocks to override.
For O.3, standard SIESTA heuristics set lmxkb to 3
 (one more than the basis l, including polarization orbitals).
Use PS.lmax or PS.KBprojectors blocks to override.
For H.4, standard SIESTA heuristics set lmxkb to 2
 (one more than the basis l, including polarization orbitals).
Use PS.lmax or PS.KBprojectors blocks to override.
Ti.1.psml pseudopotential only contains V_ls up to l=2 -- lmxkb reset.
N.2.psml pseudopotential only contains V_ls up to l=1 -- lmxkb reset.
O.3.psml pseudopotential only contains V_ls up to l=2 -- lmxkb reset.
H.4.psml pseudopotential only contains V_ls up to l=1 -- lmxkb reset.

<basis_specs>
===============================================================================
Ti.1                 Z=  22    Mass=  47.867        Charge= 0.17977+309
Lmxo=2 Lmxkb= 2    BasisType=split      Semic=T
L=0  Nsemic=1  Cnfigmx=4
          i=1  nzeta=1  polorb=0  (3s)  (semicore shell)
            splnorm:   0.15000    
               vcte:    40.000    
               rinn:  -0.90000    
               qcoe:    0.0000    
               qyuk:    0.0000    
               qwid:   0.10000E-01
                rcs:    0.0000    
            lambdas:    1.0000    
          i=2  nzeta=2  polorb=0  (4s)  (to be polarized non-perturbatively)
            splnorm:   0.15000    
               vcte:    40.000    
               rinn:  -0.90000    
               qcoe:    0.0000    
               qyuk:    0.0000    
               qwid:   0.10000E-01
                rcs:    0.0000      0.0000    
            lambdas:    1.0000      1.0000    
L=1  Nsemic=1  Cnfigmx=4
          i=1  nzeta=1  polorb=0  (3p)  (semicore shell)
            splnorm:   0.15000    
               vcte:    40.000    
               rinn:  -0.90000    
               qcoe:    0.0000    
               qyuk:    0.0000    
               qwid:   0.10000E-01
                rcs:    0.0000    
            lambdas:    1.0000    
          i=2  nzeta=1  polorb=0  (4p)  (non-perturbative polarization shell)
            splnorm:   0.15000    
               vcte:    40.000    
               rinn:  -0.90000    
               qcoe:    0.0000    
               qyuk:    0.0000    
               qwid:   0.10000E-01
                rcs:    0.0000    
            lambdas:    1.0000    
L=2  Nsemic=0  Cnfigmx=3
          i=1  nzeta=2  polorb=0  (3d)
            splnorm:   0.15000    
               vcte:    40.000    
               rinn:  -0.90000    
               qcoe:    0.0000    
               qyuk:    0.0000    
               qwid:   0.10000E-01
                rcs:    0.0000      0.0000    
            lambdas:    1.0000      1.0000    
-------------------------------------------------------------------------------
L=0  Nkbl=2  erefs: 0.17977+309 0.17977+309
L=1  Nkbl=2  erefs: 0.17977+309 0.17977+309
L=2  Nkbl=1  erefs: 0.17977+309
===============================================================================
</basis_specs>

Using PAO.SplitTailNorm
atom: Called for Ti.1                  (Z =  22)
Maximum radius (at nrval) set to   50.00000 8518

read_vps: Pseudopotential generation method:
read_vps: ONCVPSP-3.Hamann's oncvpsp                        
Valence charge in pseudo generation:   12.00000

read_vps: Pseudopotential includes a core correction:
read_vps: Pseudo-core for xc-correction

xc_check: Exchange-correlation functional:
xc_check: GGA Perdew-Wang 1991
xc_check: WARNING: Pseudopotential generated with GGA PBE functional
Got Vlocal (oncv-fit) from psml data
Choosing vlocal chloc cutoff:  3.029916
qtot up to nchloc:   12.00014688
atom: Maximum radius for chlocal:    3.02992
atom: Maximum radius for r*vlocal+2*Zval:    3.02992
Reading KB projs from Ti.1 psml data
Using scalar-relativistic projectors in PSML file

PSML: Kleinman-Bylander projectors: 
   l= 0   rc=  1.375180   Ekb= 22.724697
   l= 0   rc=  1.375180   Ekb=  2.527278
   l= 1   rc=  1.326200   Ekb=  3.950805
   l= 1   rc=  1.327537   Ekb= -0.169333
   l= 2   rc=  1.683555   Ekb=-10.372181
   l= 2   rc=  1.683555   Ekb= -2.954901

PSML: Total number of  Kleinman-Bylander projectors:  18
atom: -------------------------------------------------------------------------

atom: SANKEY-TYPE ORBITALS:
atom: Selected multiple-zeta basis: split     

SPLIT: Orbitals with angular momentum L= 0

SPLIT: Basis orbitals for state 3s

SPLIT: PAO cut-off radius determined from an
SPLIT: energy shift=  0.010000 Ry
Split based on tail norm

   izeta = 1
                 lambda =    1.000000
                     rc =    2.838606
                 energy =   -4.597225
                kinetic =    2.273030
    potential(screened) =   -6.870254
       potential(ionic) =  -22.987156

SPLIT: Basis orbitals for state 4s

SPLIT: PAO cut-off radius determined from an
SPLIT: energy shift=  0.010000 Ry
Split based on tail norm

   izeta = 1
                 lambda =    1.000000
                     rc =    7.610407
                 energy =   -0.332545
                kinetic =    0.735294
    potential(screened) =   -1.067839
       potential(ionic) =   -8.691262

   izeta = 2
                 rmatch =    5.674993
              splitnorm =    0.150000
                 energy =   -0.207882
                kinetic =    1.274420
    potential(screened) =   -1.482302
       potential(ionic) =  -10.515388

SPLIT: Orbitals with angular momentum L= 1

SPLIT: Basis orbitals for state 3p

SPLIT: PAO cut-off radius determined from an
SPLIT: energy shift=  0.010000 Ry
Split based on tail norm

   izeta = 1
                 lambda =    1.000000
                     rc =    3.182581
                 energy =   -2.849945
                kinetic =    4.934007
    potential(screened) =   -7.783952
       potential(ionic) =  -23.431190

SPLIT: Basis orbitals for state 4p
SPLIT: Non-perturbative polarization orbs for state 4s
SPLIT: rc(1st zeta) (re)set to: 7.6104 (expansion factor: 1.0000)
Split based on tail norm

   izeta = 1
                 lambda =    1.000000
                     rc =    7.610407
                 energy =   -0.059611
                kinetic =    0.841522
    potential(screened) =   -0.901133
       potential(ionic) =   -7.492803

SPLIT: Orbitals with angular momentum L= 2

SPLIT: Basis orbitals for state 3d

SPLIT: PAO cut-off radius determined from an
SPLIT: energy shift=  0.010000 Ry
Split based on tail norm

   izeta = 1
                 lambda =    1.000000
                     rc =    5.222189
                 energy =   -0.307134
                kinetic =    6.494781
    potential(screened) =   -6.801915
       potential(ionic) =  -20.306856

   izeta = 2
                 rmatch =    3.458873
              splitnorm =    0.150000
                 energy =   -0.200848
                kinetic =    8.180935
    potential(screened) =   -8.381783
       potential(ionic) =  -23.144487
atom: Total number of Sankey-type orbitals: 19

atm_pop: Valence configuration (for local Pseudopot. screening):
 3s( 2.00) 4s( 2.00)                                                  
 3p( 6.00) 4p( 0.00)                                                  
 3d( 2.00)                                                            
Vna: chval, zval:   12.00000  12.00000

Vna:  Cut-off radius for the neutral-atom potential:   7.610407
comcore: Pseudo-core radius Rcore=  1.766828

atom: _________________________________________________________________________

<basis_specs>
===============================================================================
N.2                  Z=   7    Mass=  14.007        Charge= 0.17977+309
Lmxo=2 Lmxkb= 1    BasisType=split      Semic=F
L=0  Nsemic=0  Cnfigmx=2
          i=1  nzeta=2  polorb=0  (2s)
            splnorm:   0.15000    
               vcte:    40.000    
               rinn:  -0.90000    
               qcoe:    0.0000    
               qyuk:    0.0000    
               qwid:   0.10000E-01
                rcs:    0.0000      0.0000    
            lambdas:    1.0000      1.0000    
L=1  Nsemic=0  Cnfigmx=2
          i=1  nzeta=2  polorb=1  (2p)  (to be polarized perturbatively)
            splnorm:   0.15000    
               vcte:    40.000    
               rinn:  -0.90000    
               qcoe:    0.0000    
               qyuk:    0.0000    
               qwid:   0.10000E-01
                rcs:    0.0000      0.0000    
            lambdas:    1.0000      1.0000    
L=2  Nsemic=0  Cnfigmx=3
          i=1  nzeta=0  polorb=0  (3d)  (perturbative polarization orbital) (from 2p)
-------------------------------------------------------------------------------
L=0  Nkbl=1  erefs: 0.17977+309
L=1  Nkbl=1  erefs: 0.17977+309
===============================================================================
</basis_specs>

Using PAO.SplitTailNorm
atom: Called for N.2                   (Z =   7)
NOTE: N.2 pseudopotential has channels up to l= 1
NOTE: PAOs with higher l will be generated with V_local
Maximum radius (at nrval) set to   50.00000 8518

read_vps: Pseudopotential generation method:
read_vps: ONCVPSP-3.Hamann's oncvpsp                        
Valence charge in pseudo generation:    5.00000

read_vps: Pseudopotential includes a core correction:
read_vps: Pseudo-core for xc-correction

xc_check: Exchange-correlation functional:
xc_check: GGA Perdew-Wang 1991
xc_check: WARNING: Pseudopotential generated with GGA PBE functional
Got Vlocal (oncv-fit) from psml data
Choosing vlocal chloc cutoff:  6.038618
qtot up to nchloc:    4.99995109
atom: Maximum radius for chlocal:    6.03862
atom: Maximum radius for r*vlocal+2*Zval:    6.03862
Reading KB projs from N.2 psml data
Using scalar-relativistic projectors in PSML file

PSML: Kleinman-Bylander projectors: 
   l= 0   rc=  1.214864   Ekb= 14.989018
   l= 0   rc=  1.221004   Ekb=  1.272610
   l= 1   rc=  1.375180   Ekb= -8.587810
   l= 1   rc=  1.375180   Ekb= -2.013976

PSML: Total number of  Kleinman-Bylander projectors:   8
atom: -------------------------------------------------------------------------

atom: SANKEY-TYPE ORBITALS:
atom: Selected multiple-zeta basis: split     

SPLIT: Orbitals with angular momentum L= 0

SPLIT: Basis orbitals for state 2s

SPLIT: PAO cut-off radius determined from an
SPLIT: energy shift=  0.010000 Ry
Split based on tail norm

   izeta = 1
                 lambda =    1.000000
                     rc =    3.936503
                 energy =   -1.359554
                kinetic =    1.274501
    potential(screened) =   -2.634055
       potential(ionic) =   -8.153565

   izeta = 2
                 rmatch =    2.614341
              splitnorm =    0.150000
                 energy =   -1.007343
                kinetic =    2.277460
    potential(screened) =   -3.284803
       potential(ionic) =   -9.279764

SPLIT: Orbitals with angular momentum L= 1

SPLIT: Basis orbitals for state 2p

SPLIT: PAO cut-off radius determined from an
SPLIT: energy shift=  0.010000 Ry
Split based on tail norm

   izeta = 1
                 lambda =    1.000000
                     rc =    4.791027
                 energy =   -0.515231
                kinetic =    3.553475
    potential(screened) =   -4.068706
       potential(ionic) =   -9.417104

   izeta = 2
                 rmatch =    3.160311
              splitnorm =    0.150000
                 energy =   -0.352888
                kinetic =    5.049485
    potential(screened) =   -5.402373
       potential(ionic) =  -11.276500
*Note: V_local used for l= 2

** Using vlocal for PAOs with L= 2

POLgen: Perturbative polarization orbital with L=  2

POLgen: Polarization orbital for state 2p
*Note: V_local used for lpol= 2

** Using vlocal for PAOs with L= 2
Split based on tail norm

   izeta = 1
                     rc =    4.791027
                 energy =    1.686867
                kinetic =    3.147430
    potential(screened) =   -1.460563
       potential(ionic) =   -5.789040
atom: Total number of Sankey-type orbitals: 13

atm_pop: Valence configuration (for local Pseudopot. screening):
 2s( 2.00)                                                            
 2p( 3.00)                                                            
 3d( 0.00)                                                            
Vna: chval, zval:    5.00000   5.00000

Vna:  Cut-off radius for the neutral-atom potential:   4.791027
comcore: Pseudo-core radius Rcore=  1.572221

atom: _________________________________________________________________________

<basis_specs>
===============================================================================
O.3                  Z=   8    Mass=  15.999        Charge= 0.17977+309
Lmxo=2 Lmxkb= 2    BasisType=split      Semic=F
L=0  Nsemic=0  Cnfigmx=2
          i=1  nzeta=2  polorb=0  (2s)
            splnorm:   0.15000    
               vcte:    40.000    
               rinn:  -0.90000    
               qcoe:    0.0000    
               qyuk:    0.0000    
               qwid:   0.10000E-01
                rcs:    0.0000      0.0000    
            lambdas:    1.0000      1.0000    
L=1  Nsemic=0  Cnfigmx=2
          i=1  nzeta=2  polorb=1  (2p)  (to be polarized perturbatively)
            splnorm:   0.15000    
               vcte:    40.000    
               rinn:  -0.90000    
               qcoe:    0.0000    
               qyuk:    0.0000    
               qwid:   0.10000E-01
                rcs:    0.0000      0.0000    
            lambdas:    1.0000      1.0000    
L=2  Nsemic=0  Cnfigmx=3
          i=1  nzeta=0  polorb=0  (3d)  (perturbative polarization orbital) (from 2p)
-------------------------------------------------------------------------------
L=0  Nkbl=1  erefs: 0.17977+309
L=1  Nkbl=1  erefs: 0.17977+309
L=2  Nkbl=1  erefs: 0.17977+309
===============================================================================
</basis_specs>

Using PAO.SplitTailNorm
atom: Called for O.3                   (Z =   8)
Maximum radius (at nrval) set to   50.00000 8518

read_vps: Pseudopotential generation method:
read_vps: ONCVPSP-3.Hamann's oncvpsp                        
Valence charge in pseudo generation:    6.00000

read_vps: Pseudopotential includes a core correction:
read_vps: Pseudo-core for xc-correction

xc_check: Exchange-correlation functional:
xc_check: GGA Perdew-Wang 1991
xc_check: WARNING: Pseudopotential generated with GGA PBE functional
Got Vlocal (oncv-fit) from psml data
Choosing vlocal chloc cutoff:  6.020499
qtot up to nchloc:    6.00001015
atom: Maximum radius for chlocal:    6.02050
atom: Maximum radius for r*vlocal+2*Zval:    6.02050
Reading KB projs from O.3 psml data
Using scalar-relativistic projectors in PSML file

PSML: Kleinman-Bylander projectors: 
   l= 0   rc=  1.372412   Ekb= 12.113471
   l= 0   rc=  1.372412   Ekb=  1.648048
   l= 1   rc=  1.474132   Ekb= -9.434259
   l= 1   rc=  1.474132   Ekb= -2.298541
   l= 2   rc=  1.277664   Ekb= -2.663910

PSML: Total number of  Kleinman-Bylander projectors:  13
atom: -------------------------------------------------------------------------

atom: SANKEY-TYPE ORBITALS:
atom: Selected multiple-zeta basis: split     

SPLIT: Orbitals with angular momentum L= 0

SPLIT: Basis orbitals for state 2s

SPLIT: PAO cut-off radius determined from an
SPLIT: energy shift=  0.010000 Ry
Split based on tail norm

   izeta = 1
                 lambda =    1.000000
                     rc =    3.532490
                 energy =   -1.756259
                kinetic =    1.592828
    potential(screened) =   -3.349087
       potential(ionic) =  -11.246957

   izeta = 2
                 rmatch =    2.296727
              splitnorm =    0.150000
                 energy =   -1.342857
                kinetic =    2.721466
    potential(screened) =   -4.064323
       potential(ionic) =  -12.672774

SPLIT: Orbitals with angular momentum L= 1

SPLIT: Basis orbitals for state 2p

SPLIT: PAO cut-off radius determined from an
SPLIT: energy shift=  0.010000 Ry
Split based on tail norm

   izeta = 1
                 lambda =    1.000000
                     rc =    4.308162
                 energy =   -0.658624
                kinetic =    4.630660
    potential(screened) =   -5.289284
       potential(ionic) =  -12.930979

   izeta = 2
                 rmatch =    2.779409
              splitnorm =    0.150000
                 energy =   -0.460551
                kinetic =    6.461861
    potential(screened) =   -6.922412
       potential(ionic) =  -15.308744

POLgen: Perturbative polarization orbital with L=  2

POLgen: Polarization orbital for state 2p
Split based on tail norm

   izeta = 1
                     rc =    4.308162
                 energy =    2.237799
                kinetic =    4.172724
    potential(screened) =   -1.934925
       potential(ionic) =   -8.049815
atom: Total number of Sankey-type orbitals: 13

atm_pop: Valence configuration (for local Pseudopot. screening):
 2s( 2.00)                                                            
 2p( 4.00)                                                            
 3d( 0.00)                                                            
Vna: chval, zval:    6.00000   6.00000

Vna:  Cut-off radius for the neutral-atom potential:   4.308162
comcore: Pseudo-core radius Rcore=  1.354557

atom: _________________________________________________________________________

<basis_specs>
===============================================================================
H.4                  Z=   1    Mass=  1.0080        Charge= 0.17977+309
Lmxo=1 Lmxkb= 1    BasisType=split      Semic=F
L=0  Nsemic=0  Cnfigmx=1
          i=1  nzeta=2  polorb=1  (1s)  (to be polarized perturbatively)
            splnorm:   0.15000    
               vcte:    40.000    
               rinn:  -0.90000    
               qcoe:    0.0000    
               qyuk:    0.0000    
               qwid:   0.10000E-01
                rcs:    0.0000      0.0000    
            lambdas:    1.0000      1.0000    
L=1  Nsemic=0  Cnfigmx=2
          i=1  nzeta=0  polorb=0  (2p)  (perturbative polarization orbital) (from 1s)
-------------------------------------------------------------------------------
L=0  Nkbl=1  erefs: 0.17977+309
L=1  Nkbl=1  erefs: 0.17977+309
===============================================================================
</basis_specs>

Using PAO.SplitTailNorm
atom: Called for H.4                   (Z =   1)
Maximum radius (at nrval) set to   50.00000 8518

read_vps: Pseudopotential generation method:
read_vps: ONCVPSP-3.Hamann's oncvpsp                        
Valence charge in pseudo generation:    1.00000

xc_check: Exchange-correlation functional:
xc_check: GGA Perdew-Wang 1991
xc_check: WARNING: Pseudopotential generated with GGA PBE functional
Got Vlocal (oncv-fit) from psml data
Choosing vlocal chloc cutoff:  1.926399
qtot up to nchloc:    0.99999831
atom: Maximum radius for chlocal:    1.92640
atom: Maximum radius for r*vlocal+2*Zval:    1.92640
Reading KB projs from H.4 psml data
Using scalar-relativistic projectors in PSML file

PSML: Kleinman-Bylander projectors: 
   l= 0   rc=  1.022342   Ekb= -3.402247
   l= 0   rc=  1.022342   Ekb= -1.068968
   l= 1   rc=  0.714575   Ekb= -1.006642

PSML: Total number of  Kleinman-Bylander projectors:   5
atom: -------------------------------------------------------------------------

atom: SANKEY-TYPE ORBITALS:
atom: Selected multiple-zeta basis: split     

SPLIT: Orbitals with angular momentum L= 0

SPLIT: Basis orbitals for state 1s

SPLIT: PAO cut-off radius determined from an
SPLIT: energy shift=  0.010000 Ry
Split based on tail norm

   izeta = 1
                 lambda =    1.000000
                     rc =    5.253677
                 energy =   -0.470406
                kinetic =    0.960195
    potential(screened) =   -1.430601
       potential(ionic) =   -1.952752

   izeta = 2
                 rmatch =    3.528949
              splitnorm =    0.150000
                 energy =   -0.305540
                kinetic =    1.736116
    potential(screened) =   -2.041656
       potential(ionic) =   -2.588654

POLgen: Perturbative polarization orbital with L=  1

POLgen: Polarization orbital for state 1s
Split based on tail norm

   izeta = 1
                     rc =    5.253677
                 energy =    0.682911
                kinetic =    1.341514
    potential(screened) =   -0.658603
       potential(ionic) =   -1.145954
atom: Total number of Sankey-type orbitals:  5

atm_pop: Valence configuration (for local Pseudopot. screening):
 1s( 1.00)                                                            
 2p( 0.00)                                                            
Vna: chval, zval:    1.00000   1.00000

Vna:  Cut-off radius for the neutral-atom potential:   5.253677

atom: _________________________________________________________________________

prinput: Basis input 

PAO.BasisType split     

%block ChemicalSpeciesLabel
    1   22 Ti.1                    # Species index, atomic number, species label
    2    7 N.2                     # Species index, atomic number, species label
    3    8 O.3                     # Species index, atomic number, species label
    4    1 H.4                     # Species index, atomic number, species label
%endblock ChemicalSpeciesLabel

%block PAO.Basis                 # Define Basis set
# WARNING: This information might be incomplete!
Ti.1                  5                    # Species label, number of l-shells
 n=3   0   1                         # n, l, Nzeta 
   2.839   
   1.000   
 n=4   0   2                         # n, l, Nzeta 
   7.610      5.675   
   1.000      1.000   
 n=3   1   1                         # n, l, Nzeta 
   3.183   
   1.000   
 n=4   1   1                         # n, l, Nzeta 
   7.610   
   1.000   
 n=3   2   2                         # n, l, Nzeta 
   5.222      3.459   
   1.000      1.000   
N.2                   2                    # Species label, number of l-shells
 n=2   0   2                         # n, l, Nzeta 
   3.937      2.614   
   1.000      1.000   
 n=2   1   2 P   1                   # n, l, Nzeta, Polarization, NzetaPol
   4.791      3.160   
   1.000      1.000   
O.3                   2                    # Species label, number of l-shells
 n=2   0   2                         # n, l, Nzeta 
   3.532      2.297   
   1.000      1.000   
 n=2   1   2 P   1                   # n, l, Nzeta, Polarization, NzetaPol
   4.308      2.779   
   1.000      1.000   
H.4                   1                    # Species label, number of l-shells
 n=1   0   2 P   1                   # n, l, Nzeta, Polarization, NzetaPol
   5.254      3.529   
   1.000      1.000   
%endblock PAO.Basis

prinput: ----------------------------------------------------------------------

coor:   Atomic-coordinates input format  =     Cartesian coordinates
coor:                                          (in Angstroms)

siesta: Atomic coordinates (Bohr) and species
siesta:     -0.00000   3.49131  18.89726  1        1
siesta:      3.02356   1.74565  21.25942  1        2
siesta:      0.00000   0.00000  23.62158  2        3
siesta:     -0.00000   3.49131  25.98373  3        4
siesta:      3.02356   1.74565  16.53510  3        5
siesta:     -0.00000   3.49131  28.34589  4        6
siesta:      3.02356   1.74565  14.17295  4        7

siesta: System type = slab      

initatomlists: Number of atoms, orbitals, and projectors:      7    87    80

siesta: ******************** Simulation parameters ****************************
siesta:
siesta: The following are some of the parameters of the simulation.
siesta: A complete list of the parameters used, including default values,
siesta: can be found in file out.fdf
siesta:
redata: Spin configuration                          = collinear
redata: Number of spin components                   = 2
redata: Time-Reversal Symmetry                      = T
redata: Spin spiral                                 = F
redata: Long output                                 =   F
redata: Number of Atomic Species                    =        4
redata: Charge density info will appear in .RHO file
redata: Write Mulliken charges (when)               = none
redata: Write Mulliken Pop.                         = NO
redata: Write Hirshfeld charges (when)              = none
redata: Write Voronoi charges (when)                = none
redata: Write spin charge (when)                    = scf
redata: Matel table size (NRTAB)                    =     1024
redata: Mesh Cutoff                                 =   150.0000 Ry
redata: Net charge of the system                    =     0.0000 |e|
redata: Min. number of SCF Iter                     =        0
redata: Max. number of SCF Iter                     =      200
redata: SCF convergence failure will abort job
redata: SCF mix quantity                            = Hamiltonian
redata: Mix DM or H after convergence               =   F
redata: Recompute H after scf cycle                 =   F
redata: Mix DM in first SCF step                    =   T
redata: Write Pulay info on disk                    =   F
redata: New DM Occupancy tolerance                  = 0.000000000001
redata: No kicks to SCF
redata: DM Mixing Weight for Kicks                  =     0.5000
redata: Require Harris convergence for SCF          =   F
redata: Harris energy tolerance for SCF             =     0.000100 eV
redata: Require DM convergence for SCF              =   T
redata: DM tolerance for SCF                        =     0.000100
redata: Require EDM convergence for SCF             =   F
redata: EDM tolerance for SCF                       =     0.000100 eV
redata: Require H convergence for SCF               =   T
redata: Hamiltonian tolerance for SCF               =     0.000100 eV
redata: Require (free) Energy convergence for SCF   =   F
redata: (free) Energy tolerance for SCF             =     0.000100 eV
redata: Antiferro initial spin density              =   F
redata: Using DFT-D3 dispersion                     =   F
redata: Using Saved Data (generic)                  =   F
redata: Use continuation files for DM               =   T
redata: Neglect nonoverlap interactions             =   F
redata: Method of Calculation                       = Diagonalization
redata: Electronic Temperature                      =   300.0000 K
redata: Fix the spin of the system                  =   F
redata: Max. number of TDED Iter                    =        1
redata: Number of TDED substeps                     =        3
redata: Dynamics option                             = CG coord. optimization
redata: Variable cell                               =   T
redata: Use continuation files for CG               =   F
redata: Max atomic displ per move                   =     0.1058 Ang
redata: Maximum number of optimization moves        =      100
redata: Force tolerance                             =     0.0400 eV/Ang
redata: Stress tolerance                            =     1.0000 GPa
mix.SCF: Pulay mixing                            = Pulay
mix.SCF:    Variant                              = stable
mix.SCF:    History steps                        = 5
mix.SCF:    Linear mixing weight                 =     0.100000
mix.SCF:    Mixing weight                        =     0.100000
mix.SCF:    SVD condition                        = 0.1000E-07
mix.SCF: Spin-component mixing                   all
redata: ***********************************************************************

%block SCF.Mixers
  Pulay
%endblock SCF.Mixers

%block SCF.Mixer.Pulay
  # Mixing method
  method pulay
  variant stable

  # Mixing options
  weight 0.1000
  weight.linear 0.1000
  history 5
%endblock SCF.Mixer.Pulay

DM_history_depth set to one: no extrapolation allowed by default for geometry relaxation
Size of DM history Fstack: 1
Total number of electrons:    43.000000
Total ionic charge:    43.000000

* ProcessorY, Blocksize:    1  64


* Orbital distribution balance (max,min):    87    87

k-point displ. along   1 input, could be:     0.00    0.50
k-point displ. along   2 input, could be:     0.00    0.50
 Kpoints in:           24 . Kpoints trimmed:           22

siesta: k-grid: Number of k-points = 22
siesta: k-points from Monkhorst-Pack grid
siesta: k-cutoff (effective) =     9.600 Ang
siesta: k-point supercell and displacements
siesta: k-grid:     6     0     0      0.000
siesta: k-grid:     0     6     0      0.000
siesta: k-grid:     0     0     1      0.000

diag: Algorithm                                     = D&C
diag: Parallel over k                               =   F
diag: Use parallel 2D distribution                  =   F
diag: Parallel block-size                           = 64
diag: Parallel distribution                         =     1 x     1
diag: Used triangular part                          = Lower
diag: Absolute tolerance                            =  0.100E-15
diag: Orthogonalization factor                      =  0.100E-05
diag: Memory factor                                 =  1.0000

superc: Internal auxiliary supercell:     7 x     7 x     1  =      49
superc: Number of atoms, orbitals, and projectors:    343   4263   3920


ts: **************************************************************
ts: Save H and S matrices                           =    F
ts: Save DM and EDM matrices                        =    F
ts: Only save the overlap matrix S                  =    F
ts: **************************************************************

************************ Begin: TS CHECKS AND WARNINGS ************************
************************ End: TS CHECKS AND WARNINGS **************************


                     ====================================
                        Begin CG opt. move =      0
                     ====================================

superc: Internal auxiliary supercell:     7 x     7 x     1  =      49
superc: Number of atoms, orbitals, and projectors:    343   4263   3920

outcell: Unit cell vectors (Ang):
        3.200000    0.000000    0.000000
       -1.600000    2.771281    0.000000
        0.000000    0.000000   25.000000

outcell: Cell vector modules (Ang)   :    3.200000    3.200000   25.000000
outcell: Cell angles (23,13,12) (deg):     90.0000     90.0000    120.0000
outcell: Cell volume (Ang**3)        :    221.7025
<dSpData1D:S at geom step 0
  <sparsity:sparsity for geom step 0
    nrows_g=87 nrows=87 sparsity=7.8878 nnzs=59703, refcount: 7>
  <dData1D:(new from dSpData1D) n=59703, refcount: 1>
refcount: 1>
new_DM -- step:     1
Initializing Density Matrix...

Attempting to read DM from file... Failed...
WARNING: Wrong number of orbitals in DM file: 77
WARNING: Expected number of orbitals in DM file: 87
WARNING: Falling back to alternate initialization of DM.
DM filled with atomic data (user-defined):
<dSpData2D:DM initialized from atoms
  <sparsity:sparsity for geom step 0
    nrows_g=87 nrows=87 sparsity=7.8878 nnzs=59703, refcount: 8>
  <dData2D:DM n=59703 m=2, refcount: 1>
refcount: 1>
No. of atoms with KB's overlaping orbs in proc 0. Max # of overlaps:      56     220

InitMesh: MESH = 24 x 24 x 192 = 110592
InitMesh: Mesh cutoff (required, used) =   150.000   163.014 Ry
New grid distribution [1]: sub = 2

stepf: Fermi-Dirac step function

siesta: Program's energy decomposition (eV):
siesta: Ebs     =     -1106.472089
siesta: Eions   =      6642.422589
siesta: Ena     =      1000.357882
siesta: Ekin    =      2074.941474
siesta: Enl     =      -142.382449
siesta: Eso     =         0.000000
siesta: Edftu   =         0.000000
siesta: DEna    =        71.249001
siesta: DUscf   =        43.066906
siesta: DUext   =         0.000000
siesta: Ex      =      -748.756045
siesta: Ec      =       -55.378316
siesta: Exc     =      -804.134361
siesta: EbV     =         0.000000
siesta: eta*DQ  =         0.000000
siesta: Emadel  =         0.000000
siesta: Emeta   =         0.000000
siesta: Emolmec =         0.000000
siesta: Ekinion =         0.000000
siesta: Eharris =     -4308.050634
siesta: Etot    =     -4399.324136
siesta: FreeEng =     -4399.332121

        iscf     Eharris(eV)        E_KS(eV)     FreeEng(eV)     dDmax    Ef(eV) dHmax(eV)
   scf:    1    -4308.050634    -4399.324136    -4399.332121  0.826408 -5.223340 42.282128
     spin moment: {S} , |S| = {        0.0        0.0    0.00000 }     0.00000
timer: Routine,Calls,Time,% = IterSCF        1       0.567   1.57
   scf:    2    -3063.249662    -4052.413522    -4052.421677  0.756191 -5.528026123.457923
     spin moment: {S} , |S| = {        0.0        0.0    0.00000 }     0.00000
   scf:    3    -4462.741636    -4436.709554    -4436.727418  0.566970 -5.098097  7.771754
     spin moment: {S} , |S| = {        0.0        0.0    0.00000 }     0.00000
   scf:    4    -4437.034514    -4437.106345    -4437.124705  0.046026 -4.711533  6.826214
     spin moment: {S} , |S| = {        0.0        0.0    0.00000 }     0.00000
   scf:    5    -4438.024518    -4437.889870    -4437.908084  0.035077 -4.366952  1.431626
     spin moment: {S} , |S| = {        0.0        0.0    0.00000 }     0.00000
   scf:    6    -4437.914370    -4437.922392    -4437.941082  0.008761 -4.390639  1.810379
     spin moment: {S} , |S| = {        0.0        0.0    0.00000 }     0.00000
   scf:    7    -4438.053463    -4438.029401    -4438.048447  0.014834 -4.316088  0.342342
     spin moment: {S} , |S| = {        0.0        0.0    0.00000 }     0.00000
   scf:    8    -4438.042690    -4438.037537    -4438.056706  0.005020 -4.258666  0.315955
     spin moment: {S} , |S| = {        0.0        0.0    0.00000 }     0.00000
   scf:    9    -4438.046119    -4438.042828    -4438.062086  0.003841 -4.224285  0.164414
     spin moment: {S} , |S| = {        0.0        0.0    0.00000 }     0.00000
   scf:   10    -4438.043388    -4438.043241    -4438.062535  0.002393 -4.197896  0.160702
     spin moment: {S} , |S| = {        0.0        0.0    0.00000 }     0.00000
   scf:   11    -4438.042915    -4438.043239    -4438.062537  0.000415 -4.184621  0.152426
     spin moment: {S} , |S| = {        0.0        0.0    0.00000 }     0.00000
   scf:   12    -4438.044180    -4438.043738    -4438.063011  0.001641 -4.144048  0.111120
     spin moment: {S} , |S| = {        0.0        0.0    0.00000 }     0.00000
   scf:   13    -4438.044626    -4438.044285    -4438.063509  0.001800 -4.104779  0.042495
     spin moment: {S} , |S| = {        0.0        0.0    0.00000 }     0.00000
   scf:   14    -4438.044338    -4438.044331    -4438.063552  0.000249 -4.102713  0.008056
     spin moment: {S} , |S| = {        0.0        0.0    0.00000 }     0.00000
   scf:   15    -4438.044333    -4438.044332    -4438.063557  0.000097 -4.102562  0.006654
     spin moment: {S} , |S| = {        0.0        0.0    0.00000 }     0.00000
   scf:   16    -4438.044338    -4438.044335    -4438.063562  0.000089 -4.102003  0.006207
     spin moment: {S} , |S| = {        0.0        0.0    0.00000 }     0.00000
   scf:   17    -4438.044339    -4438.044338    -4438.063565  0.000207 -4.102999  0.002507
     spin moment: {S} , |S| = {        0.0        0.0    0.00000 }     0.00000
   scf:   18    -4438.044339    -4438.044339    -4438.063565  0.000017 -4.103009  0.000784
     spin moment: {S} , |S| = {        0.0        0.0    0.00000 }     0.00000
   scf:   19    -4438.044339    -4438.044339    -4438.063565  0.000007 -4.103084  0.000627
     spin moment: {S} , |S| = {        0.0        0.0    0.00000 }     0.00000
   scf:   20    -4438.044338    -4438.044339    -4438.063565  0.000008 -4.103084  0.000576
     spin moment: {S} , |S| = {        0.0        0.0    0.00000 }     0.00000
   scf:   21    -4438.044338    -4438.044338    -4438.063565  0.000007 -4.103067  0.000409
     spin moment: {S} , |S| = {        0.0        0.0    0.00000 }     0.00000
   scf:   22    -4438.044338    -4438.044338    -4438.063565  0.000018 -4.102965  0.000176
     spin moment: {S} , |S| = {        0.0        0.0    0.00000 }     0.00000
   scf:   23    -4438.044339    -4438.044339    -4438.063565  0.000003 -4.102954  0.000142
     spin moment: {S} , |S| = {        0.0        0.0    0.00000 }     0.00000
   scf:   24    -4438.044339    -4438.044339    -4438.063565  0.000003 -4.102963  0.000169
     spin moment: {S} , |S| = {        0.0        0.0    0.00000 }     0.00000
   scf:   25    -4438.044339    -4438.044339    -4438.063565  0.000004 -4.102954  0.000079
     spin moment: {S} , |S| = {        0.0        0.0    0.00000 }     0.00000

SCF Convergence by DM+H criterion
max |DM_out - DM_in|         :     0.0000042380
max |H_out - H_in|      (eV) :     0.0000789995
SCF cycle converged after 25 iterations

Using DM_out to compute the final energy and forces
No. of atoms with KB's overlaping orbs in proc 0. Max # of overlaps:      56     220

siesta: E_KS(eV) =            -4438.0443

siesta: E_KS - E_eggbox =     -4438.0443

siesta: Atomic forces (eV/Ang):
----------------------------------------
   Tot   -0.000035    0.000020   -0.016881
----------------------------------------
   Max    9.940999
   Res    3.322229    sqrt( Sum f_i^2 / 3N )
----------------------------------------
   Max    9.940999    constrained

Stress tensor Voigt[x,y,z,yz,xz,xy] (kbar):       -6.28       -6.24       62.04       -0.00        0.00        0.04
(Free)E + p*V (eV/cell)    -4440.3479
Target enthalpy (eV/cell)    -4438.0636

siesta: Stress tensor (static) (eV/Ang**3):
        -0.003919    0.000023    0.000002
         0.000023   -0.003893   -0.000001
         0.000002   -0.000001    0.038723

siesta: Pressure (static):        -16.50824999  kBar

siesta: Stress tensor (total) (eV/Ang**3):
        -0.003919    0.000023    0.000002
         0.000023   -0.003893   -0.000001
         0.000002   -0.000001    0.038723

siesta: Pressure (total):        -16.50824999  kBar

cgvc: No target stress found, assuming hydrostatic MD.TargetPressure.

cgvc: Target stress (kBar)
cgvc:        -0.000       0.000       0.000
cgvc:         0.000      -0.000       0.000
cgvc:         0.000       0.000      -0.000

                     ====================================
                        Begin CG opt. move =      1
                     ====================================
k-point displ. along   1 input, could be:     0.00    0.50
k-point displ. along   2 input, could be:     0.00    0.50
 Kpoints in:           24 . Kpoints trimmed:           22

siesta: k-grid: Number of k-points = 22
siesta: k-points from Monkhorst-Pack grid
siesta: k-cutoff (effective) =     9.602 Ang
siesta: k-point supercell and displacements
siesta: k-grid:     6     0     0      0.000
siesta: k-grid:     0     6     0      0.000
siesta: k-grid:     0     0     1      0.000

superc: Internal auxiliary supercell:     7 x     7 x     1  =      49
superc: Number of atoms, orbitals, and projectors:    343   4263   3920

outcell: Unit cell vectors (Ang):
        3.200768   -0.000005   -0.000000
       -1.600388    2.771944    0.000000
       -0.000003    0.000002   24.940703

outcell: Cell vector modules (Ang)   :    3.200768    3.200768   24.940703
outcell: Cell angles (23,13,12) (deg):     90.0000     90.0000    120.0002
outcell: Cell volume (Ang**3)        :    221.2825
<dSpData1D:S at geom step 1
  <sparsity:sparsity for geom step 1
    nrows_g=87 nrows=87 sparsity=7.9137 nnzs=59899, refcount: 7>
  <dData1D:(new from dSpData1D) n=59899, refcount: 1>
refcount: 1>
new_DM -- step:     2
Re-using DM from previous geometries...
Number of DMs in history: 1
 DM extrapolation coefficients: 
1   1.00000
New DM after history re-use:
<dSpData2D:SpM extrapolated using coords
  <sparsity:sparsity for geom step 1
    nrows_g=87 nrows=87 sparsity=7.9137 nnzs=59899, refcount: 9>
  <dData2D:(temp array for extrapolation) n=59899 m=2, refcount: 1>
refcount: 1>
Note: For starting DM, Qtot, Tr[D*S] =         43.00000000         43.05638604
No. of atoms with KB's overlaping orbs in proc 0. Max # of overlaps:      56     220

InitMesh: MESH = 24 x 24 x 192 = 110592
InitMesh: Mesh cutoff (required, used) =   150.000   163.790 Ry
New grid distribution [1]: sub = 2

        iscf     Eharris(eV)        E_KS(eV)     FreeEng(eV)     dDmax    Ef(eV) dHmax(eV)
   scf:    1    -4250.109106    -4376.435738    -4376.445192  0.321964 -4.470089 49.174748
     spin moment: {S} , |S| = {        0.0        0.0    0.00000 }     0.00000
   scf:    2    32062.581260     7444.246980     7444.235609 16.644060 -4.696556730.966690
     spin moment: {S} , |S| = {        0.0        0.0    0.00000 }     0.00000
   scf:    3    -6543.265626    -4361.573112    -4361.593827 16.661246 -3.123131 57.102199
     spin moment: {S} , |S| = {        0.0        0.0    0.00000 }     0.00000
   scf:    4    -4422.425682    -4394.326623    -4394.337652  0.107693 -3.547777 44.170826
     spin moment: {S} , |S| = {        0.0        0.0    0.00000 }     0.00000
   scf:    5    -4438.375237    -4439.314669    -4439.323460  0.226355 -4.211227  2.833053
     spin moment: {S} , |S| = {        0.0        0.0    0.00000 }     0.00000
   scf:    6    -4437.432932    -4438.785767    -4438.793336  0.025169 -4.165899  7.169585
     spin moment: {S} , |S| = {        0.0        0.0    0.00000 }     0.00000
   scf:    7    -4090.294230    -4328.558266    -4328.574913  0.477366 -3.941171 69.533387
     spin moment: {S} , |S| = {        0.0        0.0    0.00000 }     0.00000
   scf:    8    -4474.811695    -4420.933831    -4420.945049  0.272526 -4.106744 27.757073
     spin moment: {S} , |S| = {        0.0        0.0    0.00000 }     0.00000
   scf:    9    -4376.703810    -4400.818880    -4400.828613  0.100942 -4.098775 40.226310
     spin moment: {S} , |S| = {        0.0        0.0    0.00000 }     0.00000
   scf:   10    -4437.377819    -4439.645255    -4439.653680  0.281734 -4.011032  1.401425
     spin moment: {S} , |S| = {        0.0        0.0    0.00000 }     0.00000
   scf:   11    -4439.727273    -4439.699667    -4439.708938  0.007961 -4.045223  0.520120
     spin moment: {S} , |S| = {        0.0        0.0    0.00000 }     0.00000
   scf:   12    -4439.707468    -4439.706760    -4439.716394  0.003323 -4.053264  0.065278
     spin moment: {S} , |S| = {        0.0        0.0    0.00000 }     0.00000
   scf:   13    -4439.707474    -4439.707188    -4439.716954  0.001036 -4.047341  0.045614
     spin moment: {S} , |S| = {        0.0        0.0    0.00000 }     0.00000
   scf:   14    -4439.707420    -4439.707328    -4439.717176  0.000694 -4.044494  0.050484
     spin moment: {S} , |S| = {        0.0        0.0    0.00000 }     0.00000
   scf:   15    -4439.707383    -4439.707370    -4439.717287  0.000514 -4.044514  0.027826
     spin moment: {S} , |S| = {        0.0        0.0    0.00000 }     0.00000
   scf:   16    -4439.707300    -4439.707341    -4439.717322  0.000324 -4.044531  0.007274
     spin moment: {S} , |S| = {        0.0        0.0    0.00000 }     0.00000
   scf:   17    -4439.707331    -4439.707336    -4439.717324  0.000048 -4.044242  0.006234
     spin moment: {S} , |S| = {        0.0        0.0    0.00000 }     0.00000
   scf:   18    -4439.707334    -4439.707335    -4439.717326  0.000085 -4.043120  0.006945
     spin moment: {S} , |S| = {        0.0        0.0    0.00000 }     0.00000
   scf:   19    -4439.707317    -4439.707326    -4439.717327  0.000094 -4.042471  0.001508
     spin moment: {S} , |S| = {        0.0        0.0    0.00000 }     0.00000
   scf:   20    -4439.707329    -4439.707328    -4439.717327  0.000014 -4.042270  0.000883
     spin moment: {S} , |S| = {        0.0        0.0    0.00000 }     0.00000
   scf:   21    -4439.707333    -4439.707330    -4439.717327  0.000011 -4.042128  0.000719
     spin moment: {S} , |S| = {        0.0        0.0    0.00000 }     0.00000
   scf:   22    -4439.707340    -4439.707335    -4439.717327  0.000009 -4.042006  0.000556
     spin moment: {S} , |S| = {        0.0        0.0    0.00000 }     0.00000
   scf:   23    -4439.707337    -4439.707336    -4439.717327  0.000004 -4.041997  0.000239
     spin moment: {S} , |S| = {        0.0        0.0    0.00000 }     0.00000
   scf:   24    -4439.707339    -4439.707338    -4439.717327  0.000003 -4.041965  0.000199
     spin moment: {S} , |S| = {        0.0        0.0    0.00000 }     0.00000
   scf:   25    -4439.707340    -4439.707339    -4439.717327  0.000003 -4.041952  0.000175
     spin moment: {S} , |S| = {        0.0        0.0    0.00000 }     0.00000
   scf:   26    -4439.707338    -4439.707339    -4439.717327  0.000003 -4.041951  0.000187
     spin moment: {S} , |S| = {        0.0        0.0    0.00000 }     0.00000
   scf:   27    -4439.707339    -4439.707339    -4439.717327  0.000000 -4.041949  0.000178
     spin moment: {S} , |S| = {        0.0        0.0    0.00000 }     0.00000
   scf:   28    -4439.707339    -4439.707339    -4439.717327  0.000003 -4.041932  0.000124
     spin moment: {S} , |S| = {        0.0        0.0    0.00000 }     0.00000
   scf:   29    -4439.707340    -4439.707339    -4439.717327  0.000002 -4.041915  0.000024
     spin moment: {S} , |S| = {        0.0        0.0    0.00000 }     0.00000

SCF Convergence by DM+H criterion
max |DM_out - DM_in|         :     0.0000016944
max |H_out - H_in|      (eV) :     0.0000236078
SCF cycle converged after 29 iterations

Using DM_out to compute the final energy and forces
No. of atoms with KB's overlaping orbs in proc 0. Max # of overlaps:      56     220

siesta: E_KS(eV) =            -4439.7073

siesta: Atomic forces (eV/Ang):
----------------------------------------
   Tot   -0.000006    0.000004    0.052655
----------------------------------------
   Max   10.907794
   Res    3.447790    sqrt( Sum f_i^2 / 3N )
----------------------------------------
   Max   10.907794    constrained

Stress tensor Voigt[x,y,z,yz,xz,xy] (kbar):        4.01        4.07       33.28       -0.00        0.00        0.05
(Free)E + p*V (eV/cell)    -4441.6216
Target enthalpy (eV/cell)    -4439.7173

siesta: Stress tensor (static) (eV/Ang**3):
         0.002504    0.000030    0.000003
         0.000030    0.002539   -0.000002
         0.000003   -0.000002    0.020773

siesta: Pressure (static):        -13.78763138  kBar

siesta: Stress tensor (total) (eV/Ang**3):
         0.002504    0.000030    0.000003
         0.000030    0.002539   -0.000002
         0.000003   -0.000002    0.020773

siesta: Pressure (total):        -13.78763138  kBar

                     ====================================
                        Begin CG opt. move =      2
                     ====================================
k-point displ. along   1 input, could be:     0.00    0.50
k-point displ. along   2 input, could be:     0.00    0.50
 Kpoints in:           24 . Kpoints trimmed:           22

siesta: k-grid: Number of k-points = 22
siesta: k-points from Monkhorst-Pack grid
siesta: k-cutoff (effective) =     9.606 Ang
siesta: k-point supercell and displacements
siesta: k-grid:     6     0     0      0.000
siesta: k-grid:     0     6     0      0.000
siesta: k-grid:     0     0     1      0.000

superc: Internal auxiliary supercell:     7 x     7 x     1  =      49
superc: Number of atoms, orbitals, and projectors:    343   4263   3920

outcell: Unit cell vectors (Ang):
        3.201952   -0.000012   -0.000001
       -1.600986    2.772966    0.000001
       -0.000008    0.000004   24.849304

outcell: Cell vector modules (Ang)   :    3.201952    3.201952   24.849304
outcell: Cell angles (23,13,12) (deg):     90.0000     90.0000    120.0004
outcell: Cell volume (Ang**3)        :    220.6342
<dSpData1D:S at geom step 2
  <sparsity:sparsity for geom step 2
    nrows_g=87 nrows=87 sparsity=7.8429 nnzs=59363, refcount: 7>
  <dData1D:(new from dSpData1D) n=59363, refcount: 1>
refcount: 1>
new_DM -- step:     3
Re-using DM from previous geometries...
Number of DMs in history: 1
 DM extrapolation coefficients: 
1   1.00000
New DM after history re-use:
<dSpData2D:SpM extrapolated using coords
  <sparsity:sparsity for geom step 2
    nrows_g=87 nrows=87 sparsity=7.8429 nnzs=59363, refcount: 9>
  <dData2D:(temp array for extrapolation) n=59363 m=2, refcount: 1>
refcount: 1>
Note: For starting DM, Qtot, Tr[D*S] =         43.00000000         43.09094291
No. of atoms with KB's overlaping orbs in proc 0. Max # of overlaps:      56     217

InitMesh: MESH = 24 x 24 x 192 = 110592
InitMesh: Mesh cutoff (required, used) =   150.000   164.997 Ry
New grid distribution [1]: sub = 2

        iscf     Eharris(eV)        E_KS(eV)     FreeEng(eV)     dDmax    Ef(eV) dHmax(eV)
   scf:    1    -4142.411157    -4342.046609    -4342.061185  0.401989 -4.427325 62.886028
     spin moment: {S} , |S| = {        0.0        0.0    0.00000 }     0.00000
   scf:    2    42130.241921    10678.412238    10678.403312 18.484184-10.117171815.039614
     spin moment: {S} , |S| = {        0.0        0.0    0.00000 }     0.00000
   scf:    3    -7144.884376    -4349.309937    -4349.315018 18.477125 -2.792024 64.387108
     spin moment: {S} , |S| = {        0.0        0.0    0.00000 }     0.00000
   scf:    4    -4382.641736    -4366.436006    -4366.443240  0.037586 -2.985183 58.360161
     spin moment: {S} , |S| = {        0.0        0.0    0.00000 }     0.00000
   scf:    5    -4431.871132    -4440.461707    -4440.468380  0.374122 -3.917858  7.402854
     spin moment: {S} , |S| = {        0.0        0.0    0.00000 }     0.00000
   scf:    6    -4427.648703    -4437.058475    -4437.059330  0.060525 -3.905088 16.226331
     spin moment: {S} , |S| = {        0.0        0.0    0.00000 }     0.00000
   scf:    7    -4422.859165    -4435.182113    -4435.192105  0.149669 -4.327841 18.357070
     spin moment: {S} , |S| = {        0.0        0.0    0.00000 }     0.00000
   scf:    8    -4128.551386    -4339.681616    -4339.696030  0.321243 -3.802075 66.289232
     spin moment: {S} , |S| = {        0.0        0.0    0.00000 }     0.00000
   scf:    9    -4469.362083    -4418.569081    -4418.575443  0.175279 -3.875548 31.328164
     spin moment: {S} , |S| = {        0.0        0.0    0.00000 }     0.00000
   scf:   10    -4407.603657    -4437.197635    -4437.198412  0.285873 -3.708400 15.217213
     spin moment: {S} , |S| = {        0.0        0.0    0.00000 }     0.00000
   scf:   11    -4443.182274    -4440.727163    -4440.727883  0.034963 -3.735574  7.672007
     spin moment: {S} , |S| = {        0.0        0.0    0.00000 }     0.00000
   scf:   12    -4442.473800    -4441.858241    -4441.859981  0.030078 -3.779304  2.786165
     spin moment: {S} , |S| = {        0.0        0.0    0.00000 }     0.00000
   scf:   13    -4441.148921    -4441.846134    -4441.849945  0.036574 -3.796067  2.886392
     spin moment: {S} , |S| = {        0.0        0.0    0.00000 }     0.00000
   scf:   14    -4441.940884    -4442.022687    -4442.025189  0.021230 -3.787672  0.550919
     spin moment: {S} , |S| = {        0.0        0.0    0.00000 }     0.00000
   scf:   15    -4442.028870    -4442.030224    -4442.033006  0.004489 -3.794274  0.069021
     spin moment: {S} , |S| = {        0.0        0.0    0.00000 }     0.00000
   scf:   16    -4442.028346    -4442.029505    -4442.032372  0.001321 -3.797450  0.192016
     spin moment: {S} , |S| = {        0.0        0.0    0.00000 }     0.00000
   scf:   17    -4442.030779    -4442.030441    -4442.033270  0.000679 -3.796611  0.031366
     spin moment: {S} , |S| = {        0.0        0.0    0.00000 }     0.00000
   scf:   18    -4442.030481    -4442.030501    -4442.033376  0.000523 -3.794620  0.022999
     spin moment: {S} , |S| = {        0.0        0.0    0.00000 }     0.00000
   scf:   19    -4442.030496    -4442.030501    -4442.033388  0.000171 -3.794494  0.008567
     spin moment: {S} , |S| = {        0.0        0.0    0.00000 }     0.00000
   scf:   20    -4442.030500    -4442.030501    -4442.033391  0.000137 -3.793801  0.005835
     spin moment: {S} , |S| = {        0.0        0.0    0.00000 }     0.00000
   scf:   21    -4442.030500    -4442.030500    -4442.033392  0.000082 -3.793403  0.003444
     spin moment: {S} , |S| = {        0.0        0.0    0.00000 }     0.00000
   scf:   22    -4442.030500    -4442.030500    -4442.033393  0.000050 -3.793212  0.001170
     spin moment: {S} , |S| = {        0.0        0.0    0.00000 }     0.00000
   scf:   23    -4442.030500    -4442.030500    -4442.033393  0.000023 -3.793120  0.000442
     spin moment: {S} , |S| = {        0.0        0.0    0.00000 }     0.00000
   scf:   24    -4442.030500    -4442.030500    -4442.033393  0.000006 -3.793082  0.000342
     spin moment: {S} , |S| = {        0.0        0.0    0.00000 }     0.00000
   scf:   25    -4442.030501    -4442.030501    -4442.033393  0.000006 -3.793084  0.000428
     spin moment: {S} , |S| = {        0.0        0.0    0.00000 }     0.00000
   scf:   26    -4442.030501    -4442.030501    -4442.033393  0.000006 -3.793040  0.000128
     spin moment: {S} , |S| = {        0.0        0.0    0.00000 }     0.00000
   scf:   27    -4442.030501    -4442.030501    -4442.033393  0.000002 -3.793042  0.000068
     spin moment: {S} , |S| = {        0.0        0.0    0.00000 }     0.00000

SCF Convergence by DM+H criterion
max |DM_out - DM_in|         :     0.0000020074
max |H_out - H_in|      (eV) :     0.0000684693
SCF cycle converged after 27 iterations

Using DM_out to compute the final energy and forces
No. of atoms with KB's overlaping orbs in proc 0. Max # of overlaps:      56     217

siesta: E_KS(eV) =            -4442.0305

siesta: Atomic forces (eV/Ang):
----------------------------------------
   Tot    0.000117   -0.000067    0.026125
----------------------------------------
   Max    8.966109
   Res    2.684681    sqrt( Sum f_i^2 / 3N )
----------------------------------------
   Max    8.966109    constrained

Stress tensor Voigt[x,y,z,yz,xz,xy] (kbar):       13.07       13.13        4.32       -0.00        0.01        0.05
(Free)E + p*V (eV/cell)    -4443.4344
Target enthalpy (eV/cell)    -4442.0334

siesta: Stress tensor (static) (eV/Ang**3):
         0.008161    0.000030    0.000005
         0.000030    0.008195   -0.000003
         0.000005   -0.000003    0.002695

siesta: Pressure (static):        -10.17378350  kBar

siesta: Stress tensor (total) (eV/Ang**3):
         0.008161    0.000030    0.000005
         0.000030    0.008195   -0.000003
         0.000005   -0.000003    0.002695

siesta: Pressure (total):        -10.17378350  kBar

                     ====================================
                        Begin CG opt. move =      3
                     ====================================
k-point displ. along   1 input, could be:     0.00    0.50
k-point displ. along   2 input, could be:     0.00    0.50
 Kpoints in:           24 . Kpoints trimmed:           22

siesta: k-grid: Number of k-points = 22
siesta: k-points from Monkhorst-Pack grid
siesta: k-cutoff (effective) =     9.609 Ang
siesta: k-point supercell and displacements
siesta: k-grid:     6     0     0      0.000
siesta: k-grid:     0     6     0      0.000
siesta: k-grid:     0     0     1      0.000

superc: Internal auxiliary supercell:     7 x     7 x     1  =      49
superc: Number of atoms, orbitals, and projectors:    343   4263   3920

outcell: Unit cell vectors (Ang):
        3.203136   -0.000018   -0.000002
       -1.601584    2.773988    0.000002
       -0.000012    0.000007   24.757906

outcell: Cell vector modules (Ang)   :    3.203136    3.203136   24.757906
outcell: Cell angles (23,13,12) (deg):     89.9999     90.0001    120.0007
outcell: Cell volume (Ang**3)        :    219.9847
<dSpData1D:S at geom step 3
  <sparsity:sparsity for geom step 3
    nrows_g=87 nrows=87 sparsity=7.8263 nnzs=59237, refcount: 7>
  <dData1D:(new from dSpData1D) n=59237, refcount: 1>
refcount: 1>
new_DM -- step:     4
Re-using DM from previous geometries...
Number of DMs in history: 1
 DM extrapolation coefficients: 
1   1.00000
New DM after history re-use:
<dSpData2D:SpM extrapolated using coords
  <sparsity:sparsity for geom step 3
    nrows_g=87 nrows=87 sparsity=7.8263 nnzs=59237, refcount: 9>
  <dData2D:(temp array for extrapolation) n=59237 m=2, refcount: 1>
refcount: 1>
Note: For starting DM, Qtot, Tr[D*S] =         43.00000000         43.07543680
No. of atoms with KB's overlaping orbs in proc 0. Max # of overlaps:      56     217

InitMesh: MESH = 24 x 24 x 192 = 110592
InitMesh: Mesh cutoff (required, used) =   150.000   166.217 Ry
New grid distribution [1]: sub = 2

        iscf     Eharris(eV)        E_KS(eV)     FreeEng(eV)     dDmax    Ef(eV) dHmax(eV)
   scf:    1    -4133.499351    -4340.234881    -4340.261376  0.400551 -4.206079 65.300678
     spin moment: {S} , |S| = {        0.0        0.0    0.00000 }     0.00000
   scf:    2    43184.771304    11023.381569    11023.378864 20.929121 -9.490020823.547677
     spin moment: {S} , |S| = {        0.0        0.0    0.00000 }     0.00000
   scf:    3    -7166.197284    -4356.373558    -4356.381862 20.931264 -2.339439 62.611943
     spin moment: {S} , |S| = {        0.0        0.0    0.00000 }     0.00000
   scf:    4    -4386.429899    -4371.811663    -4371.819842  0.028767 -2.530037 57.103981
     spin moment: {S} , |S| = {        0.0        0.0    0.00000 }     0.00000
   scf:    5    -4461.199926    -4438.206095    -4438.214212  0.354853 -3.647576 16.661108
     spin moment: {S} , |S| = {        0.0        0.0    0.00000 }     0.00000
   scf:    6    -4422.389130    -4431.422225    -4431.435996  0.059426 -3.610568 24.750115
     spin moment: {S} , |S| = {        0.0        0.0    0.00000 }     0.00000
   scf:    7    -3327.911953    -4109.644004    -4109.663716  0.675455 -4.600965121.180628
     spin moment: {S} , |S| = {        0.0        0.0    0.00000 }     0.00000
   scf:    8    -4426.707307    -4283.885335    -4283.908092  0.132936 -3.826812 83.049445
     spin moment: {S} , |S| = {        0.0        0.0    0.00000 }     0.00000
   scf:    9    -4302.503382    -4293.297985    -4293.325938  0.021533 -3.818243 80.494132
     spin moment: {S} , |S| = {        0.0        0.0    0.00000 }     0.00000
   scf:   10    -4284.366847    -4424.086505    -4424.103269  0.585868 -3.159700 30.910867
     spin moment: {S} , |S| = {        0.0        0.0    0.00000 }     0.00000
   scf:   11    -4438.817127    -4432.548847    -4432.557716  0.083329 -2.829496 22.644209
     spin moment: {S} , |S| = {        0.0        0.0    0.00000 }     0.00000
   scf:   12    -4446.512010    -4441.005445    -4441.011582  0.048399 -3.393303 10.250785
     spin moment: {S} , |S| = {        0.0        0.0    0.00000 }     0.00000
   scf:   13    -4444.332083    -4443.038287    -4443.044115  0.037789 -3.589773  4.826514
     spin moment: {S} , |S| = {        0.0        0.0    0.00000 }     0.00000
   scf:   14    -4443.175079    -4443.509275    -4443.515230  0.040184 -3.641662  1.246020
     spin moment: {S} , |S| = {        0.0        0.0    0.00000 }     0.00000
   scf:   15    -4442.796631    -4443.354340    -4443.360188  0.027113 -3.591379  2.900779
     spin moment: {S} , |S| = {        0.0        0.0    0.00000 }     0.00000
   scf:   16    -4443.557504    -4443.467517    -4443.473384  0.006735 -3.608634  1.924430
     spin moment: {S} , |S| = {        0.0        0.0    0.00000 }     0.00000
   scf:   17    -4443.564584    -4443.522843    -4443.528731  0.006494 -3.613683  1.144242
     spin moment: {S} , |S| = {        0.0        0.0    0.00000 }     0.00000
   scf:   18    -4443.559234    -4443.552486    -4443.558400  0.007015 -3.619679  0.138731
     spin moment: {S} , |S| = {        0.0        0.0    0.00000 }     0.00000
   scf:   19    -4443.552850    -4443.552883    -4443.558802  0.001025 -3.619803  0.027217
     spin moment: {S} , |S| = {        0.0        0.0    0.00000 }     0.00000
   scf:   20    -4443.552934    -4443.552913    -4443.558834  0.000304 -3.618061  0.011098
     spin moment: {S} , |S| = {        0.0        0.0    0.00000 }     0.00000
   scf:   21    -4443.552916    -4443.552915    -4443.558837  0.000157 -3.617274  0.011518
     spin moment: {S} , |S| = {        0.0        0.0    0.00000 }     0.00000
   scf:   22    -4443.552919    -4443.552918    -4443.558840  0.000104 -3.616161  0.003793
     spin moment: {S} , |S| = {        0.0        0.0    0.00000 }     0.00000
   scf:   23    -4443.552919    -4443.552918    -4443.558841  0.000079 -3.615387  0.002926
     spin moment: {S} , |S| = {        0.0        0.0    0.00000 }     0.00000
   scf:   24    -4443.552919    -4443.552919    -4443.558841  0.000023 -3.615231  0.001295
     spin moment: {S} , |S| = {        0.0        0.0    0.00000 }     0.00000
   scf:   25    -4443.552919    -4443.552919    -4443.558841  0.000010 -3.615108  0.000598
     spin moment: {S} , |S| = {        0.0        0.0    0.00000 }     0.00000
   scf:   26    -4443.552919    -4443.552919    -4443.558841  0.000010 -3.615008  0.000317
     spin moment: {S} , |S| = {        0.0        0.0    0.00000 }     0.00000
   scf:   27    -4443.552919    -4443.552919    -4443.558841  0.000009 -3.614974  0.000376
     spin moment: {S} , |S| = {        0.0        0.0    0.00000 }     0.00000
   scf:   28    -4443.552919    -4443.552919    -4443.558841  0.000004 -3.615020  0.000249
     spin moment: {S} , |S| = {        0.0        0.0    0.00000 }     0.00000
   scf:   29    -4443.552919    -4443.552919    -4443.558841  0.000003 -3.614998  0.000162
     spin moment: {S} , |S| = {        0.0        0.0    0.00000 }     0.00000
   scf:   30    -4443.552919    -4443.552919    -4443.558841  0.000003 -3.615019  0.000092
     spin moment: {S} , |S| = {        0.0        0.0    0.00000 }     0.00000

SCF Convergence by DM+H criterion
max |DM_out - DM_in|         :     0.0000029143
max |H_out - H_in|      (eV) :     0.0000916021
SCF cycle converged after 30 iterations

Using DM_out to compute the final energy and forces
No. of atoms with KB's overlaping orbs in proc 0. Max # of overlaps:      56     217

siesta: E_KS(eV) =            -4443.5529

siesta: Atomic forces (eV/Ang):
----------------------------------------
   Tot   -0.000045    0.000026   -0.097271
----------------------------------------
   Max    6.924491
   Res    1.891896    sqrt( Sum f_i^2 / 3N )
----------------------------------------
   Max    6.924491    constrained

Stress tensor Voigt[x,y,z,yz,xz,xy] (kbar):       14.08       14.13      -32.85       -0.01        0.01        0.04
(Free)E + p*V (eV/cell)    -4443.3469
Target enthalpy (eV/cell)    -4443.5588

siesta: Stress tensor (static) (eV/Ang**3):
         0.008790    0.000028    0.000006
         0.000028    0.008822   -0.000004
         0.000006   -0.000004   -0.020502

siesta: Pressure (static):          1.54372676  kBar

siesta: Stress tensor (total) (eV/Ang**3):
         0.008790    0.000028    0.000006
         0.000028    0.008822   -0.000004
         0.000006   -0.000004   -0.020502

siesta: Pressure (total):          1.54372676  kBar

                     ====================================
                        Begin CG opt. move =      4
                     ====================================
k-point displ. along   1 input, could be:     0.00    0.50
k-point displ. along   2 input, could be:     0.00    0.50
 Kpoints in:           24 . Kpoints trimmed:           22

siesta: k-grid: Number of k-points = 22
siesta: k-points from Monkhorst-Pack grid
siesta: k-cutoff (effective) =     9.613 Ang
siesta: k-point supercell and displacements
siesta: k-grid:     6     0     0      0.000
siesta: k-grid:     0     6     0      0.000
siesta: k-grid:     0     0     1      0.000

superc: Internal auxiliary supercell:     7 x     7 x     1  =      49
superc: Number of atoms, orbitals, and projectors:    343   4263   3920

outcell: Unit cell vectors (Ang):
        3.204321   -0.000025   -0.000002
       -1.602182    2.775010    0.000002
       -0.000017    0.000010   24.666507

outcell: Cell vector modules (Ang)   :    3.204321    3.204321   24.666507
outcell: Cell angles (23,13,12) (deg):     89.9999     90.0001    120.0009
outcell: Cell volume (Ang**3)        :    219.3341
<dSpData1D:S at geom step 4
  <sparsity:sparsity for geom step 4
    nrows_g=87 nrows=87 sparsity=7.7346 nnzs=58543, refcount: 7>
  <dData1D:(new from dSpData1D) n=58543, refcount: 1>
refcount: 1>
new_DM -- step:     5
Re-using DM from previous geometries...
Number of DMs in history: 1
 DM extrapolation coefficients: 
1   1.00000
New DM after history re-use:
<dSpData2D:SpM extrapolated using coords
  <sparsity:sparsity for geom step 4
    nrows_g=87 nrows=87 sparsity=7.7346 nnzs=58543, refcount: 9>
  <dData2D:(temp array for extrapolation) n=58543 m=2, refcount: 1>
refcount: 1>
Note: For starting DM, Qtot, Tr[D*S] =         43.00000000         43.05699761
No. of atoms with KB's overlaping orbs in proc 0. Max # of overlaps:      56     219

InitMesh: MESH = 24 x 24 x 192 = 110592
InitMesh: Mesh cutoff (required, used) =   150.000   167.452 Ry
New grid distribution [1]: sub = 2

        iscf     Eharris(eV)        E_KS(eV)     FreeEng(eV)     dDmax    Ef(eV) dHmax(eV)
   scf:    1    -4088.125172    -4325.640645    -4325.651321  0.413983 -4.124644 70.984799
     spin moment: {S} , |S| = {        0.0        0.0    0.00000 }     0.00000
   scf:    2    45214.407303    11651.281107    11651.276560 23.005301-10.480729843.150360
     spin moment: {S} , |S| = {        0.0        0.0    0.00000 }     0.00000
   scf:    3    -7296.818701    -4351.558083    -4351.568018 23.001166 -1.878422 64.364928
     spin moment: {S} , |S| = {        0.0        0.0    0.00000 }     0.00000
   scf:    4    -4374.842151    -4363.418003    -4363.427083  0.017754 -1.970550 60.427546
     spin moment: {S} , |S| = {        0.0        0.0    0.00000 }     0.00000
   scf:    5    -4462.337327    -4436.206718    -4436.216789  0.293282 -3.184813 19.736979
     spin moment: {S} , |S| = {        0.0        0.0    0.00000 }     0.00000
   scf:    6    -4412.286175    -4426.207023    -4426.230960  0.068788 -3.229984 29.745071
     spin moment: {S} , |S| = {        0.0        0.0    0.00000 }     0.00000
   scf:    7    -2324.019463    -3801.339368    -3801.354476  0.661667 -4.428986169.200957
     spin moment: {S} , |S| = {        0.0        0.0    0.00000 }     0.00000
   scf:    8    -4610.687031    -4289.742873    -4289.760976  0.308081 -3.756484 82.359715
     spin moment: {S} , |S| = {        0.0        0.0    0.00000 }     0.00000
   scf:    9    -4250.157718    -4270.369114    -4270.387109  0.037518 -3.829537 87.288693
     spin moment: {S} , |S| = {        0.0        0.0    0.00000 }     0.00000
   scf:   10    -4334.935431    -4433.897650    -4433.914161  0.554364 -3.061009 22.409985
     spin moment: {S} , |S| = {        0.0        0.0    0.00000 }     0.00000
   scf:   11    -4443.047179    -4438.942448    -4438.955401  0.028532 -3.198716 15.376398
     spin moment: {S} , |S| = {        0.0        0.0    0.00000 }     0.00000
   scf:   12    -4445.694265    -4443.226625    -4443.242906  0.041701 -3.403979  6.056462
     spin moment: {S} , |S| = {        0.0        0.0    0.00000 }     0.00000
   scf:   13    -4443.812793    -4443.544675    -4443.560648  0.009578 -3.473677  4.849042
     spin moment: {S} , |S| = {        0.0        0.0    0.00000 }     0.00000
   scf:   14    -4429.525464    -4440.048773    -4440.071298  0.105351 -3.576857 13.045286
     spin moment: {S} , |S| = {        0.0        0.0    0.00000 }     0.00000
   scf:   15    -4436.318526    -4442.827894    -4442.843883  0.120026 -3.402459  7.412281
     spin moment: {S} , |S| = {        0.0        0.0    0.00000 }     0.00000
   scf:   16    -4444.279997    -4443.675728    -4443.692853  0.018637 -3.434798  3.966424
     spin moment: {S} , |S| = {        0.0        0.0    0.00000 }     0.00000
   scf:   17    -4443.662501    -4443.669136    -4443.686302  0.000284 -3.434688  4.006809
     spin moment: {S} , |S| = {        0.0        0.0    0.00000 }     0.00000
   scf:   18    -4444.152301    -4443.989821    -4444.007359  0.015760 -3.465077  1.303263
     spin moment: {S} , |S| = {        0.0        0.0    0.00000 }     0.00000
   scf:   19    -4443.552567    -4443.911306    -4443.929420  0.021949 -3.493586  2.284726
     spin moment: {S} , |S| = {        0.0        0.0    0.00000 }     0.00000
   scf:   20    -4443.966190    -4444.022597    -4444.040276  0.016343 -3.471927  0.490908
     spin moment: {S} , |S| = {        0.0        0.0    0.00000 }     0.00000
   scf:   21    -4444.005406    -4444.023536    -4444.041386  0.005846 -3.480188  0.442829
     spin moment: {S} , |S| = {        0.0        0.0    0.00000 }     0.00000
   scf:   22    -4444.026314    -4444.027866    -4444.045628  0.002961 -3.475881  0.078581
     spin moment: {S} , |S| = {        0.0        0.0    0.00000 }     0.00000
   scf:   23    -4444.028001    -4444.027991    -4444.045763  0.000474 -3.476488  0.009220
     spin moment: {S} , |S| = {        0.0        0.0    0.00000 }     0.00000
   scf:   24    -4444.028002    -4444.027996    -4444.045763  0.000028 -3.476316  0.011576
     spin moment: {S} , |S| = {        0.0        0.0    0.00000 }     0.00000
   scf:   25    -4444.028005    -4444.028001    -4444.045765  0.000101 -3.475995  0.002656
     spin moment: {S} , |S| = {        0.0        0.0    0.00000 }     0.00000
   scf:   26    -4444.028006    -4444.028004    -4444.045766  0.000076 -3.475264  0.001726
     spin moment: {S} , |S| = {        0.0        0.0    0.00000 }     0.00000
   scf:   27    -4444.028001    -4444.028003    -4444.045766  0.000006 -3.475250  0.000851
     spin moment: {S} , |S| = {        0.0        0.0    0.00000 }     0.00000
   scf:   28    -4444.028002    -4444.028002    -4444.045766  0.000004 -3.475189  0.000657
     spin moment: {S} , |S| = {        0.0        0.0    0.00000 }     0.00000
   scf:   29    -4444.028001    -4444.028002    -4444.045766  0.000019 -3.475196  0.000344
     spin moment: {S} , |S| = {        0.0        0.0    0.00000 }     0.00000
   scf:   30    -4444.028003    -4444.028002    -4444.045766  0.000004 -3.475178  0.000105
     spin moment: {S} , |S| = {        0.0        0.0    0.00000 }     0.00000
   scf:   31    -4444.028002    -4444.028002    -4444.045766  0.000002 -3.475173  0.000057
     spin moment: {S} , |S| = {        0.0        0.0    0.00000 }     0.00000

SCF Convergence by DM+H criterion
max |DM_out - DM_in|         :     0.0000024984
max |H_out - H_in|      (eV) :     0.0000570356
SCF cycle converged after 31 iterations

Using DM_out to compute the final energy and forces
No. of atoms with KB's overlaping orbs in proc 0. Max # of overlaps:      56     219

siesta: E_KS(eV) =            -4444.0280

siesta: Atomic forces (eV/Ang):
----------------------------------------
   Tot   -0.000786    0.000453    0.071258
----------------------------------------
   Max    8.558517
   Res    2.880225    sqrt( Sum f_i^2 / 3N )
----------------------------------------
   Max    8.558517    constrained

Stress tensor Voigt[x,y,z,yz,xz,xy] (kbar):        8.86        8.91      -90.80       -0.00        0.00        0.04
(Free)E + p*V (eV/cell)    -4440.7133
Target enthalpy (eV/cell)    -4444.0458

siesta: Stress tensor (static) (eV/Ang**3):
         0.005532    0.000024    0.000002
         0.000024    0.005559   -0.000001
         0.000002   -0.000001   -0.056672

siesta: Pressure (static):         24.34266268  kBar

siesta: Stress tensor (total) (eV/Ang**3):
         0.005532    0.000024    0.000002
         0.000024    0.005559   -0.000001
         0.000002   -0.000001   -0.056672

siesta: Pressure (total):         24.34266268  kBar

                     ====================================
                        Begin CG opt. move =      5
                     ====================================
k-point displ. along   1 input, could be:     0.00    0.50
k-point displ. along   2 input, could be:     0.00    0.50
 Kpoints in:           24 . Kpoints trimmed:           22

siesta: k-grid: Number of k-points = 22
siesta: k-points from Monkhorst-Pack grid
siesta: k-cutoff (effective) =     9.612 Ang
siesta: k-point supercell and displacements
siesta: k-grid:     6     0     0      0.000
siesta: k-grid:     0     6     0      0.000
siesta: k-grid:     0     0     1      0.000

superc: Internal auxiliary supercell:     7 x     7 x     1  =      49
superc: Number of atoms, orbitals, and projectors:    343   4263   3920

outcell: Unit cell vectors (Ang):
        3.204191   -0.000025   -0.000002
       -1.602117    2.774898    0.000002
       -0.000016    0.000009   24.676535

outcell: Cell vector modules (Ang)   :    3.204191    3.204191   24.676535
outcell: Cell angles (23,13,12) (deg):     89.9999     90.0001    120.0009
outcell: Cell volume (Ang**3)        :    219.4056
<dSpData1D:S at geom step 5
  <sparsity:sparsity for geom step 5
    nrows_g=87 nrows=87 sparsity=7.6920 nnzs=58221, refcount: 7>
  <dData1D:(new from dSpData1D) n=58221, refcount: 1>
refcount: 1>
new_DM -- step:     6
Re-using DM from previous geometries...
Number of DMs in history: 1
 DM extrapolation coefficients: 
1   1.00000
New DM after history re-use:
<dSpData2D:SpM extrapolated using coords
  <sparsity:sparsity for geom step 5
    nrows_g=87 nrows=87 sparsity=7.6920 nnzs=58221, refcount: 9>
  <dData2D:(temp array for extrapolation) n=58221 m=2, refcount: 1>
refcount: 1>
No. of atoms with KB's overlaping orbs in proc 0. Max # of overlaps:      56     219

[...]
   53.8601   57.9088   57.9335   62.0366   62.2167   62.2363   64.6306   74.1496   74.1988   78.7449
   78.7875   81.1033   81.1508   81.2462   90.7781   90.7951   93.2805
  15  2  -59.0486  -59.0479  -35.6510  -35.6189  -35.6184  -35.4332  -35.2821  -35.2815  -23.1640  -23.1616
         -16.8851  -11.1961  -11.1942   -8.2705   -8.2564   -8.1133   -8.1110   -7.1024   -7.0997   -6.5723
   -1.1027   -1.1006   -1.0300    0.3435    0.3440    0.6082    1.8465    1.8482    2.0820    2.8352
    3.9666    3.9679    7.4727    7.4747    8.7250    8.8137    9.9921    9.9972    9.9980   11.5347
   11.8111   11.8152   16.9099   16.9192   18.0050   18.0103   21.3772   21.3850   21.7438   23.6341
   23.6366   23.8405   26.3177   30.9331   30.9422   31.1975   32.2016   32.2022   34.3613   34.3744
   35.3882   35.9558   38.4133   38.4211   40.6436   41.0653   47.5376   48.5168   48.5206   53.8475
   53.8601   57.9088   57.9335   62.0366   62.2167   62.2363   64.6306   74.1496   74.1988   78.7449
   78.7875   81.1033   81.1508   81.2462   90.7781   90.7951   93.2805
  16  1  -59.0667  -59.0428  -35.7258  -35.6396  -35.4803  -35.3775  -35.3120  -35.2384  -23.2135  -23.2101
         -16.9659  -11.2996  -11.2362   -8.7830   -8.4370   -7.6883   -7.2422   -7.0821   -6.7798   -6.5039
   -2.6690   -0.8807   -0.0063    0.1727    0.4956    0.8067    1.1188    1.7074    2.1406    2.5186
    3.2349    3.6013    6.8755    7.2044    7.5837    9.2262   10.4030   11.1860   11.5581   11.9325
   13.3664   14.3624   16.1260   17.2812   17.6507   18.4829   19.1217   21.7228   21.8975   23.7965
   25.1439   26.2525   28.0458   29.0130   31.7245   32.1821   32.9198   32.9930   34.2295   34.9136
   36.2828   36.9378   37.9797   40.8432   41.0211   41.2910   45.5356   47.9128   50.6208   52.6181
   53.4081   55.0962   56.7594   59.8219   62.0403   63.5362   66.4592   67.4731   69.2474   76.9052
   81.2955   81.8285   86.8089   87.4490   90.3064   96.0347  102.5752
  16  2  -59.0667  -59.0428  -35.7258  -35.6396  -35.4803  -35.3775  -35.3120  -35.2384  -23.2135  -23.2101
         -16.9659  -11.2996  -11.2362   -8.7830   -8.4370   -7.6883   -7.2422   -7.0821   -6.7798   -6.5039
   -2.6690   -0.8807   -0.0063    0.1727    0.4956    0.8067    1.1188    1.7074    2.1406    2.5186
    3.2349    3.6013    6.8755    7.2044    7.5837    9.2262   10.4030   11.1860   11.5581   11.9325
   13.3664   14.3624   16.1260   17.2812   17.6507   18.4829   19.1217   21.7228   21.8975   23.7965
   25.1439   26.2525   28.0458   29.0130   31.7245   32.1821   32.9198   32.9930   34.2295   34.9136
   36.2828   36.9378   37.9797   40.8432   41.0211   41.2910   45.5356   47.9128   50.6208   52.6181
   53.4081   55.0962   56.7594   59.8219   62.0403   63.5362   66.4592   67.4731   69.2474   76.9052
   81.2955   81.8285   86.8089   87.4490   90.3064   96.0347  102.5752
  17  1  -59.0667  -59.0428  -35.7258  -35.6396  -35.4803  -35.3775  -35.3120  -35.2384  -23.2135  -23.2101
         -16.9659  -11.2996  -11.2362   -8.7830   -8.4370   -7.6883   -7.2422   -7.0821   -6.7798   -6.5039
   -2.6690   -0.8807   -0.0063    0.1727    0.4956    0.8067    1.1188    1.7074    2.1406    2.5186
    3.2349    3.6013    6.8755    7.2044    7.5837    9.2262   10.4030   11.1860   11.5581   11.9325
   13.3664   14.3624   16.1260   17.2812   17.6507   18.4829   19.1217   21.7228   21.8975   23.7965
   25.1439   26.2525   28.0458   29.0130   31.7245   32.1821   32.9198   32.9930   34.2295   34.9136
   36.2828   36.9378   37.9797   40.8432   41.0211   41.2910   45.5356   47.9128   50.6208   52.6181
   53.4081   55.0962   56.7594   59.8219   62.0403   63.5362   66.4592   67.4731   69.2474   76.9052
   81.2955   81.8285   86.8089   87.4490   90.3064   96.0347  102.5751
  17  2  -59.0667  -59.0428  -35.7258  -35.6396  -35.4803  -35.3775  -35.3120  -35.2384  -23.2135  -23.2101
         -16.9659  -11.2996  -11.2362   -8.7830   -8.4370   -7.6883   -7.2422   -7.0821   -6.7798   -6.5039
   -2.6690   -0.8807   -0.0063    0.1727    0.4956    0.8067    1.1188    1.7074    2.1406    2.5186
    3.2349    3.6013    6.8755    7.2044    7.5837    9.2262   10.4030   11.1860   11.5581   11.9325
   13.3664   14.3624   16.1260   17.2812   17.6507   18.4829   19.1217   21.7228   21.8975   23.7965
   25.1439   26.2525   28.0458   29.0130   31.7245   32.1821   32.9198   32.9930   34.2295   34.9136
   36.2828   36.9378   37.9797   40.8432   41.0211   41.2910   45.5356   47.9128   50.6208   52.6181
   53.4081   55.0962   56.7594   59.8219   62.0403   63.5362   66.4592   67.4731   69.2474   76.9052
   81.2955   81.8285   86.8089   87.4490   90.3064   96.0347  102.5751
  18  1  -59.0666  -59.0428  -35.7254  -35.6393  -35.4814  -35.3769  -35.3132  -35.2386  -23.2131  -23.2097
         -16.9654  -11.2993  -11.2357   -8.7840   -8.4381   -7.6878   -7.2435   -7.0833   -6.7816   -6.5039
   -2.6686   -0.8794   -0.0028    0.1704    0.4960    0.8059    1.1182    1.7095    2.1416    2.5188
    3.2391    3.6027    6.8780    7.2097    7.5833    9.2249   10.3969   11.1940   11.5576   11.9369
   13.3592   14.3479   16.1233   17.2731   17.6448   18.4817   19.1145   21.7281   21.9030   23.8036
   25.1393   26.2487   28.0455   29.0047   31.7298   32.1736   32.9173   32.9969   34.2296   34.9148
   36.2726   36.9433   37.9659   40.8381   41.0179   41.2989   45.5307   47.8971   50.6133   52.6260
   53.4267   55.0978   56.7565   59.8114   62.0437   63.5343   66.4516   67.4955   69.2325   76.8733
   81.3364   81.8495   86.7505   87.4238   90.3358   95.9945  102.6278
  18  2  -59.0666  -59.0428  -35.7254  -35.6393  -35.4814  -35.3769  -35.3132  -35.2386  -23.2131  -23.2097
         -16.9654  -11.2993  -11.2357   -8.7840   -8.4381   -7.6878   -7.2435   -7.0833   -6.7816   -6.5039
   -2.6686   -0.8794   -0.0028    0.1704    0.4960    0.8059    1.1182    1.7095    2.1416    2.5188
    3.2391    3.6027    6.8780    7.2097    7.5833    9.2249   10.3969   11.1940   11.5576   11.9369
   13.3592   14.3479   16.1233   17.2731   17.6448   18.4817   19.1145   21.7281   21.9030   23.8036
   25.1393   26.2487   28.0455   29.0047   31.7298   32.1736   32.9173   32.9969   34.2296   34.9148
   36.2726   36.9433   37.9659   40.8381   41.0179   41.2989   45.5307   47.8971   50.6133   52.6260
   53.4267   55.0978   56.7565   59.8114   62.0437   63.5343   66.4516   67.4955   69.2325   76.8733
   81.3364   81.8495   86.7505   87.4238   90.3358   95.9945  102.6278
  19  1  -59.0664  -59.0448  -35.7890  -35.6728  -35.4037  -35.3816  -35.2593  -35.2553  -23.2168  -23.2097
         -16.9616  -11.3258  -11.2044   -9.2312   -8.5452   -7.5081   -7.3536   -6.9272   -6.4794   -6.0018
   -3.6786   -0.1458    0.1754    0.4583    0.7157    0.7607    1.1392    1.3933    1.6060    3.1461
    3.3067    3.6871    6.0123    6.3302    6.8757    9.5135    9.9342   11.1967   11.6407   12.8055
   14.7089   16.6547   16.7085   16.7487   17.6578   17.8577   19.0355   20.9414   23.1037   24.1469
   25.5952   26.8142   28.2682   30.1134   31.8991   31.9721   33.2298   34.2785   35.4548   35.8949
   36.2083   36.3500   40.2001   41.2177   43.7675   45.8539   46.0915   47.3680   47.7438   47.8503
   51.4406   54.1124   60.9222   60.9320   61.8269   64.3199   66.3740   66.7815   67.1879   68.9386
   78.9405   80.8816   84.7993   88.4658   98.5599  109.8447  111.9406
  19  2  -59.0664  -59.0448  -35.7890  -35.6728  -35.4037  -35.3816  -35.2593  -35.2553  -23.2168  -23.2097
         -16.9616  -11.3258  -11.2044   -9.2312   -8.5452   -7.5081   -7.3536   -6.9272   -6.4794   -6.0018
   -3.6786   -0.1458    0.1754    0.4583    0.7157    0.7607    1.1392    1.3933    1.6060    3.1461
    3.3067    3.6871    6.0123    6.3302    6.8757    9.5135    9.9342   11.1967   11.6407   12.8055
   14.7089   16.6547   16.7085   16.7487   17.6578   17.8577   19.0355   20.9414   23.1037   24.1469
   25.5952   26.8142   28.2682   30.1134   31.8991   31.9721   33.2298   34.2785   35.4548   35.8949
   36.2083   36.3500   40.2001   41.2177   43.7675   45.8539   46.0915   47.3680   47.7438   47.8503
   51.4406   54.1124   60.9222   60.9320   61.8269   64.3199   66.3740   66.7815   67.1879   68.9386
   78.9405   80.8816   84.7993   88.4658   98.5599  109.8447  111.9406
  20  1  -59.0666  -59.0428  -35.7254  -35.6393  -35.4814  -35.3769  -35.3132  -35.2386  -23.2131  -23.2097
         -16.9654  -11.2993  -11.2357   -8.7840   -8.4381   -7.6878   -7.2435   -7.0833   -6.7816   -6.5039
   -2.6686   -0.8794   -0.0028    0.1704    0.4960    0.8059    1.1182    1.7095    2.1416    2.5188
    3.2391    3.6027    6.8780    7.2097    7.5833    9.2249   10.3969   11.1940   11.5576   11.9369
   13.3592   14.3479   16.1233   17.2731   17.6448   18.4817   19.1145   21.7281   21.9030   23.8036
   25.1393   26.2487   28.0455   29.0047   31.7298   32.1736   32.9173   32.9969   34.2296   34.9148
   36.2726   36.9433   37.9659   40.8381   41.0179   41.2989   45.5307   47.8971   50.6133   52.6260
   53.4267   55.0978   56.7565   59.8114   62.0437   63.5343   66.4516   67.4955   69.2325   76.8733
   81.3364   81.8495   86.7505   87.4238   90.3358   95.9945  102.6278
  20  2  -59.0666  -59.0428  -35.7254  -35.6393  -35.4814  -35.3769  -35.3132  -35.2386  -23.2131  -23.2097
         -16.9654  -11.2993  -11.2357   -8.7840   -8.4381   -7.6878   -7.2435   -7.0833   -6.7816   -6.5039
   -2.6686   -0.8794   -0.0028    0.1704    0.4960    0.8059    1.1182    1.7095    2.1416    2.5188
    3.2391    3.6027    6.8780    7.2097    7.5833    9.2249   10.3969   11.1940   11.5576   11.9369
   13.3592   14.3479   16.1233   17.2731   17.6448   18.4817   19.1145   21.7281   21.9030   23.8036
   25.1393   26.2487   28.0455   29.0047   31.7298   32.1736   32.9173   32.9969   34.2296   34.9148
   36.2726   36.9433   37.9659   40.8381   41.0179   41.2989   45.5307   47.8971   50.6133   52.6260
   53.4267   55.0978   56.7565   59.8114   62.0437   63.5343   66.4516   67.4955   69.2325   76.8733
   81.3364   81.8495   86.7505   87.4238   90.3358   95.9945  102.6278
  21  1  -59.0667  -59.0428  -35.7258  -35.6396  -35.4803  -35.3775  -35.3120  -35.2384  -23.2135  -23.2101
         -16.9659  -11.2996  -11.2362   -8.7830   -8.4370   -7.6883   -7.2422   -7.0821   -6.7798   -6.5039
   -2.6690   -0.8807   -0.0063    0.1727    0.4956    0.8067    1.1188    1.7074    2.1406    2.5186
    3.2349    3.6013    6.8755    7.2044    7.5837    9.2262   10.4030   11.1860   11.5581   11.9325
   13.3664   14.3624   16.1260   17.2812   17.6507   18.4829   19.1217   21.7228   21.8975   23.7965
   25.1439   26.2525   28.0458   29.0130   31.7245   32.1821   32.9198   32.9930   34.2295   34.9136
   36.2828   36.9378   37.9797   40.8432   41.0211   41.2910   45.5356   47.9128   50.6208   52.6181
   53.4081   55.0962   56.7594   59.8219   62.0403   63.5362   66.4592   67.4731   69.2474   76.9052
   81.2955   81.8285   86.8089   87.4490   90.3064   96.0347  102.5751
  21  2  -59.0667  -59.0428  -35.7258  -35.6396  -35.4803  -35.3775  -35.3120  -35.2384  -23.2135  -23.2101
         -16.9659  -11.2996  -11.2362   -8.7830   -8.4370   -7.6883   -7.2422   -7.0821   -6.7798   -6.5039
   -2.6690   -0.8807   -0.0063    0.1727    0.4956    0.8067    1.1188    1.7074    2.1406    2.5186
    3.2349    3.6013    6.8755    7.2044    7.5837    9.2262   10.4030   11.1860   11.5581   11.9325
   13.3664   14.3624   16.1260   17.2812   17.6507   18.4829   19.1217   21.7228   21.8975   23.7965
   25.1439   26.2525   28.0458   29.0130   31.7245   32.1821   32.9198   32.9930   34.2295   34.9136
   36.2828   36.9378   37.9797   40.8432   41.0211   41.2910   45.5356   47.9128   50.6208   52.6181
   53.4081   55.0962   56.7594   59.8219   62.0403   63.5362   66.4592   67.4731   69.2474   76.9052
   81.2955   81.8285   86.8089   87.4490   90.3064   96.0347  102.5751
  22  1  -59.0667  -59.0448  -35.7893  -35.6731  -35.4020  -35.3826  -35.2576  -35.2550  -23.2176  -23.2105
         -16.9628  -11.3265  -11.2052   -9.2295   -8.5435   -7.5079   -7.3500   -6.9255   -6.4795   -5.9978
   -3.6804   -0.1485    0.1765    0.4551    0.7179    0.7593    1.1405    1.3901    1.6010    3.1475
    3.3011    3.6804    6.0098    6.3257    6.8777    9.5156    9.9325   11.2003   11.6310   12.8043
   14.7137   16.6753   16.7300   16.7417   17.6867   17.8760   19.0342   20.9337   23.0937   24.1478
   25.5907   26.8272   28.2791   30.1158   31.8959   31.9777   33.2269   34.2667   35.4472   35.8975
   36.2013   36.3411   40.1927   41.2668   43.7509   45.8779   46.1066   47.3942   47.6962   47.8668
   51.4662   54.0940   60.9187   60.9271   61.8110   64.3286   66.3740   66.7931   67.1793   68.9415
   78.9274   80.8865   84.8003   88.4600   98.5103  110.0040  111.6748
  22  2  -59.0667  -59.0448  -35.7893  -35.6731  -35.4020  -35.3826  -35.2576  -35.2550  -23.2176  -23.2105
         -16.9628  -11.3265  -11.2052   -9.2295   -8.5435   -7.5079   -7.3500   -6.9255   -6.4795   -5.9978
   -3.6804   -0.1485    0.1765    0.4551    0.7179    0.7593    1.1405    1.3901    1.6010    3.1475
    3.3011    3.6804    6.0098    6.3257    6.8777    9.5156    9.9325   11.2003   11.6310   12.8043
   14.7137   16.6753   16.7300   16.7417   17.6867   17.8760   19.0342   20.9337   23.0937   24.1478
   25.5907   26.8272   28.2791   30.1158   31.8959   31.9777   33.2269   34.2667   35.4472   35.8975
   36.2013   36.3411   40.1927   41.2668   43.7509   45.8779   46.1066   47.3942   47.6962   47.8668
   51.4662   54.0940   60.9187   60.9271   61.8110   64.3286   66.3740   66.7931   67.1793   68.9415
   78.9274   80.8865   84.8003   88.4600   98.5103  110.0040  111.6748
siesta: Fermi energy =      -1.182798 eV

siesta: Program's energy decomposition (eV):
siesta: Ebs     =      -942.987934
siesta: Eions   =      6642.422589
siesta: Ena     =       996.819972
siesta: Ekin    =      2118.749355
siesta: Enl     =      -145.554473
siesta: Eso     =         0.000000
siesta: Edftu   =         0.000000
siesta: DEna    =        30.906526
siesta: DUscf   =         2.234899
siesta: DUext   =         0.000000
siesta: Ex      =      -756.993226
siesta: Ec      =       -56.536483
siesta: Exc     =      -813.529709
siesta: EbV     =         0.000000
siesta: eta*DQ  =         0.000000
siesta: Emadel  =         0.000000
siesta: Emeta   =         0.000000
siesta: Emolmec =         0.000000
siesta: Ekinion =         0.000000
siesta: Eharris =     -4452.796019
siesta: Etot    =     -4452.796019
siesta: FreeEng =     -4452.798307

siesta: Final energy (eV):
siesta:  Band Struct. =    -942.987934
siesta:       Kinetic =    2118.749355
siesta:       Hartree =   22892.377114
siesta:         Edftu =       0.000000
siesta:       Eso     =       0.000000
siesta:    Ext. field =       0.000000
siesta:         Exch. =    -756.993226
siesta:         Corr. =     -56.536483
siesta:     Bulk bias =       0.000000
siesta:   Exch.-corr. =    -813.529709
siesta:  Ion-electron =  -47935.401592
siesta:       Ion-ion =   19285.008813
siesta:       Ekinion =       0.000000
siesta: D3 dispersion =       0.000000
siesta:         Total =   -4452.796019
siesta:         Fermi =      -1.182798

siesta: Stress tensor (static) (eV/Ang**3):
siesta:     0.000022    0.000011   -0.000033
siesta:     0.000011    0.000035    0.000019
siesta:    -0.000033    0.000019   -0.000759

siesta: Constrained stress tensor (static) (eV/Ang**3):
siesta:     0.000022    0.000011   -0.000033
siesta:     0.000011    0.000035    0.000019
siesta:    -0.000033    0.000019   -0.000759

siesta: Cell volume =        183.774238 Ang**3

siesta: Pressure (static):
siesta:                Solid            Molecule  Units
siesta:           0.00000255          0.00000405  Ry/Bohr**3
siesta:           0.00023382          0.00037192  eV/Ang**3
siesta:           0.37461383          0.59588621  kBar
(Free)E+ p_basis*V_orbitals  =       -4449.637002
(Free)Eharris+ p_basis*V_orbitals  =       -4449.637002

siesta: Electric dipole (a.u.)  =   -0.000000    0.000000    0.000112
siesta: Electric dipole (Debye) =   -0.000000    0.000000    0.000284

dhscf: Vacuum level (max, mean) =   -1.268019   -1.288671 eV

cite: Please see "Ti2NTx.bib" for an exhaustive BiBTeX file.
cite: Please clearly indicate Siesta version in published work: 5.2.0-12-gaf738a07d
cite: This calculation has made use of the following articles
cite: which are encouraged to be cited in a published work.
        Primary SIESTA paper
          DOI: www.doi.org/10.1088/0953-8984/14/11/302


timer: Elapsed wall time (sec) =     736.910
timer: CPU execution times (sec):

Routine            Calls   Time/call    Tot.time        %
siesta                 1     736.844     736.844   100.00
Setup                  1       0.271       0.271     0.04
bands                  1       0.000       0.000     0.00
KSV_init               1       0.000       0.000     0.00
IterGeom              58      12.697     736.408    99.94
geom_init             58       1.203      69.745     9.47
state_init            58       0.142       8.209     1.11
hsparse               58       0.011       0.664     0.09
overlap               58       0.122       7.089     0.96
Setup_H0              58       0.786      45.569     6.18
naefs                116       0.000       0.019     0.00
dnaefs               116       0.000       0.009     0.00
MolMec               116       0.000       0.001     0.00
kinefsm              116       0.066       7.600     1.03
nlefsm               116       0.241      27.993     3.80
DHSCF_Init            58       0.240      13.914     1.89
DHSCF1                58       0.012       0.677     0.09
InitMesh              58       0.012       0.673     0.09
INITMESH              58       0.000       0.000     0.00
DHSCF2                58       0.228      13.237     1.80
REMESH                58       0.038       2.230     0.30
REORD               5950       0.000       0.693     0.09
PHION                 58       0.160       9.265     1.26
COMM_BSC           10046       0.000       0.856     0.12
POISON              1285       0.006       7.438     1.01
fft                 2570       0.003       6.621     0.90
setup_H             1168       0.275     321.277    43.60
DHSCF               1227       0.300     368.216    49.97
DHSCF3              1227       0.274     336.721    45.70
rhoofd              1227       0.122     149.136    20.24
XC                  1227       0.032      39.772     5.40
GXC-CellXC          1227       0.032      39.391     5.35
gridxc@cellXC       1227       0.032      39.385     5.35
vmat                1226       0.112     137.814    18.70
IterSCF             1110       0.554     614.568    83.41
compute_dm          1110       0.275     305.526    41.46
diagon              1110       0.275     305.123    41.41
c-eigval           48840       0.002      95.590    12.97
c-buildHS          48840       0.001      28.985     3.93
cdiag              97680       0.002     184.124    24.99
cdiag1             97680       0.000      12.332     1.67
cdiag2             97680       0.000      45.159     6.13
cdiag3             97680       0.001     121.103    16.44
c-eigvec           48840       0.003     146.395    19.87
cdiag4             48840       0.000       4.525     0.61
c-buildD           48840       0.001      62.346     8.46
MIXER               1052       0.002       2.145     0.29
PostSCF               58       0.897      52.034     7.06
FINAL_HF              58       0.897      51.997     7.06
DHSCF4                58       0.543      31.493     4.27
dfscf                 58       0.515      29.878     4.05
overfsm               58       0.011       0.621     0.08
writeHSX              58       0.001       0.061     0.01
state_analysis        58       0.000       0.013     0.00
siesta_move           58       0.000       0.004     0.00
Analysis               1       0.165       0.165     0.02
optical                1       0.000       0.000     0.00
  

>> End of run:  20-JAN-2025   5:10:11
Job completed
