Executable      : siesta
Version         : 5.2.0-12-gaf738a07d
Architecture    : x86_64
Compiler version: GNU-13.2.0
Compiler flags  : -fallow-argument-mismatch -O3 -march=native
Parallelisations: MPI
Native ELPA support
ELSI support. Solvers:
   ELPA (internal) 
   NTPoly
   OMM
DFT-D3 support

Runtime information:
* Directory : /media/hakan/New Volume1/dftLiteratur/malzemeML/mxene_project/src/dft/stability
* Running in serial mode (only 1 MPI rank).
>> Start of run:  20-JAN-2025   0:52:55

                           *********************** 
                           *  WELCOME TO SIESTA  * 
                           *********************** 

 NOTE: Siesta V5 introduces some new defaults for basis-set generation
 NOTE: which might lead to slightly different numerical results.
 NOTE: Please see the manual for full details and compatibility measures.


reinit: Reading from standard input
reinit: Dumping input in INPUT_TMP.48135
************************** Dump of input data file ****************************
SystemName	Mn2CTx_OH
SystemLabel	Mn2CTx_OH
DM.InitialSpinPol	0.2
DM.MixingWeight	0.1
DM.NumberPulay	5
DM.Tolerance	0.0001
DM.UseSaveDM	True
ElectronicTemperature	300 K
MaxSCFIterations	200
PAO.BasisSize	DZP
PAO.EnergyShift	0.02 Ry
PAO.SplitNorm	0.15
SaveDeltaRho	True
SaveElectrostaticPotential	True
SaveRho	True
SolutionMethod	diagon
VDW.method	DFT-D2
VDW.radius	40.0
VDW.scale	0.75
WriteDenchar	True
WriteEigenvalues	True
XC.authors	PBE
XC.functional	GGA
XML.Write	True
SCFMustConverge	True
Spin	polarized
XC.functional	GGA
XC.authors	PW91
MeshCutoff	1360.5693012183622	eV
PAO.EnergyShift	0.27211386024367246	eV
NumberOfSpecies	4
NumberOfAtoms	7
%block ChemicalSpecieslabel
    1 25 Mn.1 Mn.1.psml
    2 6 C.2 C.2.psml
    3 8 O.3 O.3.psml
    4 1 H.4 H.4.psml
%endblock ChemicalSpecieslabel
%block PAO.BasisSizes
    Mn.1	DZP
    C.2	DZP
    O.3	DZP
    H.4	DZP
%endblock PAO.BasisSizes
LatticeConstant	1.0 Ang
%block LatticeVectors
    3.2 0.0 0.0
    -1.6 2.7712812921102037 0.0
    0.0 0.0 20.0
%endblock LatticeVectors
AtomicCoordinatesFormat	Ang
%block AtomicCoordinatesAndAtomicSpecies
    -1.480297366166875e-17 1.8475208614068024 8.0 1
    1.5999999999999999 0.9237604307034012 9.0 1
    0.0 0.0 10.0 2
    1.5999999999999999 0.9237604307034012 10.0 3
    2.0999999999999996 0.9237604307034012 10.5 4
    -1.480297366166875e-17 1.8475208614068024 9.0 3
    0.5 1.8475208614068024 9.5 4
%endblock AtomicCoordinatesAndAtomicSpecies
%block DM.InitSpin
%endblock DM.InitSpin
#KPoint grid
%block kgrid_Monkhorst_Pack
     6       0       0  0.0
     0       6       0  0.0
     0       0       1  0.0
%endblock kgrid_Monkhorst_Pack
************************** End of input data file *****************************
*** WARNING:  FDF module: fdf_read: block DM.InitSpin is empty...

reinit: -----------------------------------------------------------------------
reinit: System Name: Mn2CTx_OH
reinit: -----------------------------------------------------------------------
reinit: System Label: Mn2CTx_OH
reinit: -----------------------------------------------------------------------

NOTE on units for spin output: 
{S} is the spin magnetic moment, in units of the Bohr magneton,
assuming a g-factor for the electron spin of exactly 2.
The spin magnetic moment is then numerically equal to the charge inbalance,
in units of electrons, between the spin-up and -down channels.


initatom: Reading input for the pseudopotentials and atomic orbitals ----------
Species number:   1 Atomic number:   25 Label: Mn.1
Species number:   2 Atomic number:    6 Label: C.2
Species number:   3 Atomic number:    8 Label: O.3
Species number:   4 Atomic number:    1 Label: H.4

Ground state valence configuration (from tables):   4s02  4p00  3d05  4f00
Ground state valence configuration (from tables):   2s02  2p02  3d00  4f00
Ground state valence configuration (from tables):   2s02  2p04  3d00  4f00
Ground state valence configuration (from tables):   1s01  2p00  3d00  4f00

---- Processing specs for species: Mn.1
pseudo_read: ERROR: Pseudopotential file not found: Mn.1.psml

Stopping Program from Node:    0
